   * xtb version 6.4.1 (afa7bdf) compiled by 'ehlert@majestix' on 2021-06-10
          program call               : /lustre/hpc/kemi/borup/pKalculator/dep/xtb-6.4.1/bin/xtb --gfn 2 /lustre/hpc/kemi/borup/pKalculator/calc/test#-1=11/conf05/test#-1=11_conf05_gfn2.xyz --opt --lmo --chrg -1 --uhf 0
          number of atoms            :                    18
          number of electrons        :                    56
          charge                     :                    -1
          spin                       :                   0.0

   ID    Z sym.   atoms
    1    6 C      1-5, 8-10
    2    7 N      6, 7
    3   16 S      11
    4    1 H      12-18

          :  Hamiltonian                  GFN2-xTB          :
 * total energy  :   -29.8886190 Eh     change       -0.3041560E-08 Eh
 * total energy  :   -29.8970800 Eh     change       -0.8460972E-02 Eh
 * total energy  :   -29.8989762 Eh     change       -0.1896132E-02 Eh
 * total energy  :   -29.8991709 Eh     change       -0.1947498E-03 Eh
 * total energy  :   -29.8992672 Eh     change       -0.9632355E-04 Eh
 * total energy  :   -29.8992907 Eh     change       -0.2348050E-04 Eh
 * total energy  :   -29.8993045 Eh     change       -0.1379350E-04 Eh
 * total energy  :   -29.8993134 Eh     change       -0.8945912E-05 Eh
 * total energy  :   -29.8993178 Eh     change       -0.4350581E-05 Eh
   *** GEOMETRY OPTIMIZATION CONVERGED AFTER 9 ITERATIONS ***

 final structure:
================
18
 xtb: 6.4.1 (afa7bdf)
C         3.25002711322216   -0.01985929904728    1.18808521508084
C         2.04634086483255    0.19636034821228    0.33149900262359
C         0.76108632456287   -0.14452656454951    0.58105865038712
C        -0.15358835689268    0.19931599771292   -0.46254191586759
C        -1.56719844464465   -0.06080115846551   -0.42672911341123
N        -2.36888412649164    0.29129474206790   -1.44649778636050
N        -3.58972033583796   -0.12393409623138   -1.02084616225538
C        -3.67455337671594   -0.72715716505370    0.20343853328535
C        -2.31888619766610   -0.68080293502563    0.59310198495448
C         0.49372436619640    0.80755166727737   -1.49837701379635
S         2.19936694305607    0.96819688437157   -1.22426968049963
H         4.11090330181055    0.49513674988069    0.76665220481101
H         3.48640353729056   -1.08376300816816    1.26202702504957
H         3.07505150977943    0.35611459689383    2.19723724219039
H         0.45325361999757   -0.63221656372764    1.49067908741961
H        -4.36781698662284    0.04215007718564   -1.64539345782387
H        -1.90964424166729   -1.05772242561275    1.52325648682143
H         0.07413448579091    1.17466315227936   -2.41238230260885

          :  Hamiltonian                  GFN2-xTB          :
         :: total energy             -29.899317796075 Eh    ::
         :: gradient norm              0.000765739986 Eh/a0 ::
         :: HOMO-LUMO gap              0.554035456645 eV    ::
         :: SCC energy               -30.314341888037 Eh    ::
         :: -> dispersion             -0.018637844876 Eh    ::
         :: repulsion energy           0.415046454927 Eh    ::

    * Orbital Energies and Occupations

         #    Occupation            Energy/Eh            Energy/eV
      -------------------------------------------------------------
         1        2.0000           -0.5928286             -16.1317
       ...           ...                  ...                  ...
        16        2.0000           -0.3305468              -8.9946
        17        2.0000           -0.3213094              -8.7433
        18        2.0000           -0.3172146              -8.6318
        19        2.0000           -0.3043460              -8.2817
        20        2.0000           -0.2927935              -7.9673
        21        2.0000           -0.2744815              -7.4690
        22        2.0000           -0.2613587              -7.1119
        23        2.0000           -0.2481257              -6.7518
        24        2.0000           -0.2447492              -6.6600
        25        2.0000           -0.1889791              -5.1424
        26        2.0000           -0.1851060              -5.0370
        27        2.0000           -0.1578292              -4.2948
        28        2.0000           -0.1224037              -3.3308 (HOMO)
        29        0.0000           -0.1020433              -2.7767 (LUMO)
        30                         -0.0740244              -2.0143
        31                         -0.0427601              -1.1636
        32                          0.0133166               0.3624
        33                          0.0331930               0.9032
        34                          0.0878150               2.3896
        35                          0.1222585               3.3268
        36                          0.1540482               4.1919
        37                          0.1664325               4.5289
        38                          0.2127730               5.7898
        39                          0.2419929               6.5850
       ...                                ...                  ...
        56                          0.8688953              23.6438
      -------------------------------------------------------------
                  HL-Gap            0.0203604 Eh            0.5540 eV

     #   Z          covCN         q      C6AA      α(0)
     1   6 C        3.773    -0.092    22.288     6.727
     2   6 C        2.973     0.018    27.598     8.617
     3   6 C        3.120    -0.058    29.248     8.857
     4   6 C        3.128    -0.006    27.977     8.660
     5   6 C        3.104     0.036    27.054     8.523
     6   7 N        1.949    -0.359    30.165     8.144
     7   7 N        3.068    -0.030    21.820     6.938
     8   6 C        1.961    -0.307    40.551    10.284
     9   6 C        3.073    -0.084    30.016     8.983
    10   6 C        2.945    -0.028    28.688     8.785
    11  16 S        2.293    -0.200   149.564    20.583
    12   1 H        0.925     0.033     2.542     2.493
    13   1 H        0.924     0.027     2.628     2.535
    14   1 H        0.924     0.027     2.626     2.534
    15   1 H        0.926     0.015     2.812     2.622
    16   1 H        0.860     0.073     2.064     2.250
    17   1 H        0.925    -0.088     5.148     3.548
    18   1 H        0.927     0.020     2.732     2.585

Wiberg/Mayer (AO) data.
largest (>0.10) Wiberg bond orders for each atom

     #   Z sym  total        # sym  WBO       # sym  WBO       # sym  WBO
 ---------------------------------------------------------------------------
     1   6 C    3.998 --     2 C    1.026    12 H    0.987    14 H    0.977
                            13 H    0.974
     2   6 C    3.940 --     3 C    1.649    11 S    1.120     1 C    1.026
                            10 C    0.111
     3   6 C    3.985 --     2 C    1.649     4 C    1.192    15 H    0.962
     4   6 C    3.977 --    10 C    1.545     3 C    1.192     5 C    1.094
     5   6 C    3.958 --     6 N    1.372     9 C    1.319     4 C    1.094
     6   7 N    2.910 --     5 C    1.372     7 N    1.157     8 C    0.187
                             9 C    0.120
     7   7 N    3.548 --     8 C    1.273     6 N    1.157    16 H    0.964
     8   6 C    2.933 --     9 C    1.434     7 N    1.273     6 N    0.187
     9   6 C    3.949 --     8 C    1.434     5 C    1.319    17 H    0.966
                             6 N    0.120
    10   6 C    3.912 --     4 C    1.545    11 S    1.118    18 H    0.971
                             2 C    0.111
    11  16 S    2.517 --     2 C    1.120    10 C    1.118
    12   1 H    0.999 --     1 C    0.987
    13   1 H    0.999 --     1 C    0.974
    14   1 H    0.999 --     1 C    0.977
    15   1 H    1.000 --     3 C    0.962
    16   1 H    0.994 --     7 N    0.964
    17   1 H    0.992 --     9 C    0.966
    18   1 H    0.999 --    10 C    0.971
 ---------------------------------------------------------------------------

molecular dipole:
                 x           y           z       tot (Debye)
 q only:        3.087       0.152       0.781
   full:        3.376       0.145       0.889       8.880

           -------------------------------------------------
          | TOTAL ENERGY              -29.899317796075 Eh   |
          | GRADIENT NORM               0.000765739986 Eh/α |
          | HOMO-LUMO GAP               0.554035456645 eV   |
           -------------------------------------------------

 * finished run on 2022/11/02 at 18:13:39.367
