   * xtb version 6.4.1 (afa7bdf) compiled by 'ehlert@majestix' on 2021-06-10
          program call               : /lustre/hpc/kemi/borup/pKalculator/dep/xtb-6.4.1/bin/xtb --gfn 2 /lustre/hpc/kemi/borup/pKalculator/calc/test#-1=1/conf03/test#-1=1_conf03_gfn2.xyz --opt --lmo --chrg -1 --uhf 0
          number of atoms            :                    18
          number of electrons        :                    56
          charge                     :                    -1
          spin                       :                   0.0

   ID    Z sym.   atoms
    1    6 C      1-5, 8-10
    2    7 N      6, 7
    3   16 S      11
    4    1 H      12-18

          :  Hamiltonian                  GFN2-xTB          :
 * total energy  :   -29.8634031 Eh     change       -0.4646949E-10 Eh
 * total energy  :   -29.8747625 Eh     change       -0.1135935E-01 Eh
 * total energy  :   -29.8780180 Eh     change       -0.3255513E-02 Eh
 * total energy  :   -29.8782257 Eh     change       -0.2077385E-03 Eh
 * total energy  :   -29.8783172 Eh     change       -0.9144159E-04 Eh
 * total energy  :   -29.8783395 Eh     change       -0.2235148E-04 Eh
 * total energy  :   -29.8783561 Eh     change       -0.1663516E-04 Eh
 * total energy  :   -29.8783660 Eh     change       -0.9810783E-05 Eh
 * total energy  :   -29.8783723 Eh     change       -0.6310008E-05 Eh
 * total energy  :   -29.8783771 Eh     change       -0.4872347E-05 Eh
   *** GEOMETRY OPTIMIZATION CONVERGED AFTER 10 ITERATIONS ***

 final structure:
================
18
 xtb: 6.4.1 (afa7bdf)
C        -3.56542479085136    0.07661160170423   -0.19543207766312
C        -2.16343587140817   -0.34989502921426    0.09566675333597
C        -1.00546790123523    0.24875379189175   -0.26216005951897
C         0.17420933414568   -0.43228651061460    0.17728993640478
C         1.51349668906385    0.01680926236330   -0.08167668799778
N         1.69148867463641    1.14440571408526   -0.80793455085172
N         3.02083145309931    1.27380494381595   -0.85824126474826
C         3.64941809506366    0.24792277732299   -0.17580182041746
C         2.72822289348447   -0.62963960348722    0.36982961431670
C        -0.14353058736015   -1.56210741620301    0.87526234858409
S        -1.85542319663722   -1.80754779025616    1.00534262202843
H        -3.77417335453626    0.01653902566438   -1.26597817662135
H        -3.72569055025784    1.10907715183196    0.12006746059282
H        -4.27235316825642   -0.56285163822462    0.32964021064539
H        -0.95235143154021    1.16284896362274   -0.82848397498221
H         3.42172222391050    2.06042198973348   -1.35596044948727
H         4.73523309797887    0.25563864814739   -0.15181316044763
H         0.52322839069971   -2.26850488218326    1.32474227682706

          :  Hamiltonian                  GFN2-xTB          :
         :: total energy             -29.878377138407 Eh    ::
         :: gradient norm              0.000514013269 Eh/a0 ::
         :: HOMO-LUMO gap              0.343615889646 eV    ::
         :: SCC energy               -30.290079021386 Eh    ::
         :: -> dispersion             -0.018417029478 Eh    ::
         :: repulsion energy           0.411746793745 Eh    ::

    * Orbital Energies and Occupations

         #    Occupation            Energy/Eh            Energy/eV
      -------------------------------------------------------------
         1        2.0000           -0.5820638             -15.8388
       ...           ...                  ...                  ...
        16        2.0000           -0.3260295              -8.8717
        17        2.0000           -0.3205264              -8.7220
        18        2.0000           -0.3165208              -8.6130
        19        2.0000           -0.3084959              -8.3946
        20        2.0000           -0.2987436              -8.1292
        21        2.0000           -0.2759505              -7.5090
        22        2.0000           -0.2511024              -6.8328
        23        2.0000           -0.2371459              -6.4531
        24        2.0000           -0.2251942              -6.1278
        25        2.0000           -0.1925484              -5.2395
        26        2.0000           -0.1806416              -4.9155
        27        2.0000           -0.1565185              -4.2591
        28        1.9974           -0.1023292              -2.7845 (HOMO)
        29        0.0026           -0.0897015              -2.4409 (LUMO)
        30                         -0.0639275              -1.7396
        31                         -0.0375733              -1.0224
        32                          0.0236986               0.6449
        33                          0.0270865               0.7371
        34                          0.1008821               2.7451
        35                          0.1324209               3.6034
        36                          0.1641826               4.4676
        37                          0.1775004               4.8300
        38                          0.1980891               5.3903
        39                          0.2449273               6.6648
       ...                                ...                  ...
        56                          0.8673778              23.6026
      -------------------------------------------------------------
                  HL-Gap            0.0126277 Eh            0.3436 eV

     #   Z          covCN         q      C6AA      α(0)
     1   6 C        3.772    -0.092    22.278     6.726
     2   6 C        2.972     0.017    27.627     8.622
     3   6 C        3.120    -0.057    29.234     8.855
     4   6 C        3.131    -0.004    27.901     8.647
     5   6 C        3.254     0.041    26.022     8.252
     6   7 N        1.954    -0.333    29.458     8.049
     7   7 N        2.949    -0.057    22.340     7.020
     8   6 C        3.071    -0.020    28.426     8.742
     9   6 C        2.001    -0.366    42.745    10.559
    10   6 C        2.943    -0.031    28.773     8.798
    11  16 S        2.297    -0.208   149.918    20.608
    12   1 H        0.924     0.024     2.669     2.555
    13   1 H        0.924     0.025     2.665     2.553
    14   1 H        0.925     0.031     2.565     2.505
    15   1 H        0.926     0.020     2.733     2.585
    16   1 H        0.860     0.072     2.075     2.257
    17   1 H        0.925    -0.088     5.167     3.555
    18   1 H        0.927     0.025     2.665     2.553

Wiberg/Mayer (AO) data.
largest (>0.10) Wiberg bond orders for each atom

     #   Z sym  total        # sym  WBO       # sym  WBO       # sym  WBO
 ---------------------------------------------------------------------------
     1   6 C    3.997 --     2 C    1.024    14 H    0.987    13 H    0.978
                            12 H    0.975
     2   6 C    3.938 --     3 C    1.656    11 S    1.113     1 C    1.024
                            10 C    0.108
     3   6 C    3.985 --     2 C    1.656     4 C    1.184    15 H    0.963
                            11 S    0.101
     4   6 C    3.975 --    10 C    1.537     3 C    1.184     5 C    1.109
     5   6 C    3.934 --     6 N    1.364     9 C    1.231     4 C    1.109
                             7 N    0.106
     6   7 N    2.911 --     5 C    1.364     7 N    1.199     8 C    0.202
     7   7 N    3.534 --     6 N    1.199     8 C    1.151    16 H    0.955
                             5 C    0.106
     8   6 C    3.885 --     9 C    1.525     7 N    1.151    17 H    0.961
                             6 N    0.202
     9   6 C    2.988 --     8 C    1.525     5 C    1.231
    10   6 C    3.906 --     4 C    1.537    11 S    1.118    18 H    0.970
                             2 C    0.108
    11  16 S    2.509 --    10 C    1.118     2 C    1.113     3 C    0.101
    12   1 H    0.999 --     1 C    0.975
    13   1 H    0.999 --     1 C    0.978
    14   1 H    0.999 --     1 C    0.987
    15   1 H    1.000 --     3 C    0.963
    16   1 H    0.994 --     7 N    0.955
    17   1 H    0.992 --     8 C    0.961
    18   1 H    0.999 --    10 C    0.970
 ---------------------------------------------------------------------------

molecular dipole:
                 x           y           z       tot (Debye)
 q only:       -2.840       0.521      -0.201
   full:       -2.435       1.359      -0.732       7.327

           -------------------------------------------------
          | TOTAL ENERGY              -29.878377138407 Eh   |
          | GRADIENT NORM               0.000514013269 Eh/α |
          | HOMO-LUMO GAP               0.343615889646 eV   |
           -------------------------------------------------

 * finished run on 2022/11/02 at 18:13:37.678
