   * xtb version 6.4.1 (afa7bdf) compiled by 'ehlert@majestix' on 2021-06-10
          program call               : /lustre/hpc/kemi/borup/pKalculator/dep/xtb-6.4.1/bin/xtb --gfn 2 /lustre/hpc/kemi/borup/pKalculator/calc/test#-1=7/conf07/test#-1=7_conf07_gfn2.xyz --opt --lmo --chrg -1 --uhf 0
          number of atoms            :                    18
          number of electrons        :                    56
          charge                     :                    -1
          spin                       :                   0.0

   ID    Z sym.   atoms
    1    6 C      1-5, 8-10
    2    7 N      6, 7
    3   16 S      11
    4    1 H      12-18

          :  Hamiltonian                  GFN2-xTB          :
 * total energy  :   -29.8921254 Eh     change       -0.1833733E-09 Eh
 * total energy  :   -29.9046816 Eh     change       -0.1255626E-01 Eh
 * total energy  :   -29.9072427 Eh     change       -0.2561059E-02 Eh
 * total energy  :   -29.9075184 Eh     change       -0.2757379E-03 Eh
 * total energy  :   -29.9076124 Eh     change       -0.9397014E-04 Eh
 * total energy  :   -29.9076316 Eh     change       -0.1924276E-04 Eh
 * total energy  :   -29.9076491 Eh     change       -0.1750439E-04 Eh
 * total energy  :   -29.9076685 Eh     change       -0.1936950E-04 Eh
 * total energy  :   -29.9076870 Eh     change       -0.1846137E-04 Eh
 * total energy  :   -29.9077233 Eh     change       -0.3634822E-04 Eh
 * total energy  :   -29.9080244 Eh     change       -0.1302550E-04 Eh
 * total energy  :   -29.9080295 Eh     change       -0.5068605E-05 Eh
 * total energy  :   -29.9080345 Eh     change       -0.5068645E-05 Eh
 * total energy  :   -29.9080423 Eh     change       -0.7794220E-05 Eh
 * total energy  :   -29.9080548 Eh     change       -0.1249019E-04 Eh
 * total energy  :   -29.9080637 Eh     change       -0.8870514E-05 Eh
 * total energy  :   -29.9080740 Eh     change       -0.1032148E-04 Eh
 * total energy  :   -29.9080794 Eh     change       -0.5363086E-05 Eh
 * total energy  :   -29.9080829 Eh     change       -0.3571219E-05 Eh
   *** GEOMETRY OPTIMIZATION CONVERGED AFTER 29 ITERATIONS ***

 final structure:
================
18
 xtb: 6.4.1 (afa7bdf)
C         3.66485103679301    0.43628788047181    0.47136557991154
C         2.34167888109586   -0.10889195174341    0.05356865282871
C         1.09735610095924    0.36544073851362    0.28763611214243
C         0.07029579347368   -0.45306099672707   -0.28309152155539
C        -1.32191983529227   -0.13370810498109   -0.15584952074783
N        -1.78976652671995    0.93780724763503    0.48398054797214
N        -3.13421007376781    0.87386271426736    0.37651994578905
C        -3.53589662317798   -0.21820085687625   -0.32130607570074
C        -2.40726388567600   -0.89356505844768   -0.68220092058582
C         0.47322216140957   -1.59442574748746   -0.98311749195403
S         2.23269567682183   -1.58738539506030   -0.88646102521492
H         3.52809802782375    1.37189984885425    1.01602278775655
H         4.30149769685152    0.62839876464194   -0.39622146188732
H         4.19442141696562   -0.26817541629698    1.11871656004399
H         0.88773394666002    1.26719018613735    0.84636998463024
H        -3.70492243263608    1.59221809481311    0.78966443220031
H        -4.57927452830073   -0.41331505374383   -0.49518486647067
H        -2.31859683328330   -1.80237789397042   -1.24041271915827

          :  Hamiltonian                  GFN2-xTB          :
         :: total energy             -29.908082942911 Eh    ::
         :: gradient norm              0.000554485783 Eh/a0 ::
         :: HOMO-LUMO gap              2.126261425990 eV    ::
         :: SCC energy               -30.325757595952 Eh    ::
         :: -> dispersion             -0.018440373344 Eh    ::
         :: repulsion energy           0.417728840604 Eh    ::

    * Orbital Energies and Occupations

         #    Occupation            Energy/Eh            Energy/eV
      -------------------------------------------------------------
         1        2.0000           -0.5372202             -14.6185
       ...           ...                  ...                  ...
        16        2.0000           -0.3257631              -8.8645
        17        2.0000           -0.3237387              -8.8094
        18        2.0000           -0.3177761              -8.6471
        19        2.0000           -0.2756004              -7.4995
        20        2.0000           -0.2665851              -7.2541
        21        2.0000           -0.2616146              -7.1189
        22        2.0000           -0.2519443              -6.8558
        23        2.0000           -0.2463579              -6.7037
        24        2.0000           -0.2339462              -6.3660
        25        2.0000           -0.2270591              -6.1786
        26        2.0000           -0.1889622              -5.1419
        27        2.0000           -0.1621979              -4.4136
        28        2.0000           -0.1420334              -3.8649 (HOMO)
        29                         -0.0638947              -1.7387 (LUMO)
        30                         -0.0333696              -0.9080
        31                         -0.0152292              -0.4144
        32                          0.0049689               0.1352
        33                          0.0841101               2.2888
        34                          0.0859744               2.3395
        35                          0.1458439               3.9686
        36                          0.1964495               5.3457
        37                          0.2098148               5.7094
        38                          0.2287252               6.2239
        39                          0.2490946               6.7782
       ...                                ...                  ...
        56                          0.8842489              24.0616
      -------------------------------------------------------------
                  HL-Gap            0.0781387 Eh            2.1263 eV

     #   Z          covCN         q      C6AA      α(0)
     1   6 C        3.769    -0.076    21.984     6.682
     2   6 C        2.975     0.006    27.883     8.662
     3   6 C        3.100    -0.062    29.414     8.888
     4   6 C        3.224    -0.043    28.285     8.643
     5   6 C        3.130     0.071    26.214     8.382
     6   7 N        1.982    -0.291    28.354     7.897
     7   7 N        2.971    -0.038    21.970     6.962
     8   6 C        2.982    -0.015    28.391     8.740
     9   6 C        3.018    -0.083    30.048     8.992
    10   6 C        1.974    -0.233    37.958     9.950
    11  16 S        2.398    -0.328   155.348    20.978
    12   1 H        0.924     0.001     3.045     2.729
    13   1 H        0.924     0.008     2.915     2.670
    14   1 H        0.924     0.008     2.929     2.677
    15   1 H        0.925    -0.035     3.746     3.027
    16   1 H        0.860     0.117     1.648     2.011
    17   1 H        0.926    -0.018     3.387     2.878
    18   1 H        0.927     0.011     2.870     2.649

Wiberg/Mayer (AO) data.
largest (>0.10) Wiberg bond orders for each atom

     #   Z sym  total        # sym  WBO       # sym  WBO       # sym  WBO
 ---------------------------------------------------------------------------
     1   6 C    3.994 --     2 C    1.022    12 H    0.984    13 H    0.979
                            14 H    0.979
     2   6 C    3.934 --     3 C    1.644    11 S    1.091     1 C    1.022
                            10 C    0.109
     3   6 C    3.979 --     2 C    1.644     4 C    1.193    15 H    0.962
     4   6 C    3.955 --    10 C    1.485     3 C    1.193     5 C    1.124
     5   6 C    3.964 --     6 N    1.438     9 C    1.249     4 C    1.124
     6   7 N    2.910 --     5 C    1.438     7 N    1.147     8 C    0.156
     7   7 N    3.551 --     8 C    1.233     6 N    1.147    16 H    0.956
                             9 C    0.102
     8   6 C    3.948 --     9 C    1.570     7 N    1.233    17 H    0.968
                             6 N    0.156
     9   6 C    3.976 --     8 C    1.570     5 C    1.249    18 H    0.975
                             7 N    0.102
    10   6 C    2.978 --     4 C    1.485    11 S    1.223     2 C    0.109
    11  16 S    2.519 --    10 C    1.223     2 C    1.091
    12   1 H    1.000 --     1 C    0.984
    13   1 H    0.999 --     1 C    0.979
    14   1 H    0.999 --     1 C    0.979
    15   1 H    0.999 --     3 C    0.962
    16   1 H    0.986 --     7 N    0.956
    17   1 H    0.999 --     8 C    0.968
    18   1 H    1.000 --     9 C    0.975
 ---------------------------------------------------------------------------

molecular dipole:
                 x           y           z       tot (Debye)
 q only:       -1.352       1.417       0.826
   full:       -1.692       2.129       1.261       7.618

           -------------------------------------------------
          | TOTAL ENERGY              -29.908082942911 Eh   |
          | GRADIENT NORM               0.000554485783 Eh/α |
          | HOMO-LUMO GAP               2.126261425990 eV   |
           -------------------------------------------------

 * finished run on 2022/11/02 at 18:13:41.680
