   * xtb version 6.4.1 (afa7bdf) compiled by 'ehlert@majestix' on 2021-06-10
          program call               : /lustre/hpc/kemi/borup/pKalculator/dep/xtb-6.4.1/bin/xtb --gfn 2 /lustre/hpc/kemi/borup/pKalculator/calc/test#-1=7/conf04/test#-1=7_conf04_gfn2.xyz --opt --lmo --chrg -1 --uhf 0
          number of atoms            :                    18
          number of electrons        :                    56
          charge                     :                    -1
          spin                       :                   0.0

   ID    Z sym.   atoms
    1    6 C      1-5, 8-10
    2    7 N      6, 7
    3   16 S      11
    4    1 H      12-18

          :  Hamiltonian                  GFN2-xTB          :
 * total energy  :   -29.8926916 Eh     change       -0.1947775E-09 Eh
 * total energy  :   -29.9052419 Eh     change       -0.1255027E-01 Eh
 * total energy  :   -29.9077310 Eh     change       -0.2489122E-02 Eh
 * total energy  :   -29.9079831 Eh     change       -0.2521133E-03 Eh
 * total energy  :   -29.9080674 Eh     change       -0.8432563E-04 Eh
 * total energy  :   -29.9080799 Eh     change       -0.1245606E-04 Eh
 * total energy  :   -29.9080845 Eh     change       -0.4649534E-05 Eh
   *** GEOMETRY OPTIMIZATION CONVERGED AFTER 7 ITERATIONS ***

 final structure:
================
18
 xtb: 6.4.1 (afa7bdf)
C        -3.71607904761320   -0.17556721235429   -0.13639650791474
C        -2.27883376877236   -0.52909159194038   -0.31493432187487
C        -1.16899478247507    0.19737129570819   -0.05274481194457
C         0.04238374287624   -0.50037650402673   -0.36288224833169
C         1.33550631127007    0.08659056690275   -0.16144027023016
N         1.53306597272303    1.31179854855847    0.32461876704368
N         2.87191014819574    1.48368995497994    0.35837930334904
C         3.53531489105895    0.39105508549757   -0.09712779411786
C         2.58998744465060   -0.52971653465811   -0.44148396058817
C        -0.07636775310530   -1.79503238481666   -0.87757332465485
S        -1.81074834306695   -2.09545252355395   -0.95319033661425
H        -4.20783971593148   -0.86629472466532    0.55441107182410
H        -3.80616982665437    0.83635064119231    0.26249534625611
H        -4.25336906966960   -0.22331392513954   -1.08769450356767
H        -1.18225124396953    1.20127507117433    0.34896114578516
H         3.25719647975526    2.34995750352220    0.69564648532343
H         4.61005508877441    0.37069277575249   -0.13356030862984
H         2.72523247195355   -1.51393604213326   -0.83967373111282

          :  Hamiltonian                  GFN2-xTB          :
         :: total energy             -29.908084521389 Eh    ::
         :: gradient norm              0.000710964228 Eh/a0 ::
         :: HOMO-LUMO gap              2.122328262900 eV    ::
         :: SCC energy               -30.325633283105 Eh    ::
         :: -> dispersion             -0.018439882153 Eh    ::
         :: repulsion energy           0.417602906591 Eh    ::

    * Orbital Energies and Occupations

         #    Occupation            Energy/Eh            Energy/eV
      -------------------------------------------------------------
         1        2.0000           -0.5372351             -14.6189
       ...           ...                  ...                  ...
        16        2.0000           -0.3258219              -8.8661
        17        2.0000           -0.3237876              -8.8107
        18        2.0000           -0.3177429              -8.6462
        19        2.0000           -0.2755832              -7.4990
        20        2.0000           -0.2665873              -7.2542
        21        2.0000           -0.2615963              -7.1184
        22        2.0000           -0.2520133              -6.8576
        23        2.0000           -0.2463706              -6.7041
        24        2.0000           -0.2339683              -6.3666
        25        2.0000           -0.2270866              -6.1793
        26        2.0000           -0.1889432              -5.1414
        27        2.0000           -0.1621764              -4.4130
        28        2.0000           -0.1419528              -3.8627 (HOMO)
        29                         -0.0639586              -1.7404 (LUMO)
        30                         -0.0333276              -0.9069
        31                         -0.0152221              -0.4142
        32                          0.0050449               0.1373
        33                          0.0842210               2.2918
        34                          0.0859467               2.3387
        35                          0.1458052               3.9676
        36                          0.1964588               5.3459
        37                          0.2098450               5.7102
        38                          0.2287553               6.2247
        39                          0.2488763               6.7723
       ...                                ...                  ...
        56                          0.8844597              24.0674
      -------------------------------------------------------------
                  HL-Gap            0.0779941 Eh            2.1223 eV

     #   Z          covCN         q      C6AA      α(0)
     1   6 C        3.769    -0.076    21.981     6.682
     2   6 C        2.975     0.006    27.882     8.661
     3   6 C        3.101    -0.062    29.414     8.887
     4   6 C        3.224    -0.044    28.287     8.643
     5   6 C        3.130     0.071    26.214     8.382
     6   7 N        1.982    -0.291    28.352     7.897
     7   7 N        2.971    -0.038    21.972     6.962
     8   6 C        2.982    -0.015    28.390     8.740
     9   6 C        3.018    -0.083    30.046     8.991
    10   6 C        1.974    -0.233    37.959     9.950
    11  16 S        2.398    -0.328   155.342    20.977
    12   1 H        0.924     0.008     2.925     2.674
    13   1 H        0.924     0.001     3.047     2.730
    14   1 H        0.924     0.008     2.921     2.673
    15   1 H        0.925    -0.035     3.745     3.026
    16   1 H        0.860     0.117     1.647     2.011
    17   1 H        0.926    -0.018     3.386     2.878
    18   1 H        0.927     0.011     2.871     2.650

Wiberg/Mayer (AO) data.
largest (>0.10) Wiberg bond orders for each atom

     #   Z sym  total        # sym  WBO       # sym  WBO       # sym  WBO
 ---------------------------------------------------------------------------
     1   6 C    3.994 --     2 C    1.022    13 H    0.984    14 H    0.979
                            12 H    0.979
     2   6 C    3.934 --     3 C    1.644    11 S    1.091     1 C    1.022
                            10 C    0.109
     3   6 C    3.979 --     2 C    1.644     4 C    1.193    15 H    0.962
     4   6 C    3.955 --    10 C    1.485     3 C    1.193     5 C    1.124
     5   6 C    3.964 --     6 N    1.438     9 C    1.249     4 C    1.124
     6   7 N    2.910 --     5 C    1.438     7 N    1.148     8 C    0.156
     7   7 N    3.551 --     8 C    1.233     6 N    1.148    16 H    0.956
                             9 C    0.102
     8   6 C    3.948 --     9 C    1.570     7 N    1.233    17 H    0.968
                             6 N    0.156
     9   6 C    3.976 --     8 C    1.570     5 C    1.249    18 H    0.975
                             7 N    0.102
    10   6 C    2.978 --     4 C    1.485    11 S    1.223     2 C    0.109
    11  16 S    2.520 --    10 C    1.223     2 C    1.091
    12   1 H    0.999 --     1 C    0.979
    13   1 H    1.000 --     1 C    0.984
    14   1 H    0.999 --     1 C    0.979
    15   1 H    0.999 --     3 C    0.962
    16   1 H    0.986 --     7 N    0.956
    17   1 H    0.999 --     8 C    0.968
    18   1 H    1.000 --     9 C    0.975
 ---------------------------------------------------------------------------

molecular dipole:
                 x           y           z       tot (Debye)
 q only:        0.986       1.760       0.984
   full:        1.146       2.586       1.310       7.922

           -------------------------------------------------
          | TOTAL ENERGY              -29.908084521389 Eh   |
          | GRADIENT NORM               0.000710964228 Eh/α |
          | HOMO-LUMO GAP               2.122328262900 eV   |
           -------------------------------------------------

 * finished run on 2022/11/02 at 18:13:41.097
