   * xtb version 6.4.1 (afa7bdf) compiled by 'ehlert@majestix' on 2021-06-10
          program call               : /lustre/hpc/kemi/borup/pKalculator/dep/xtb-6.4.1/bin/xtb --gfn 2 /lustre/hpc/kemi/borup/pKalculator/calc/test#-1=7/conf01/test#-1=7_conf01_gfn2.xyz --opt --lmo --chrg -1 --uhf 0
          number of atoms            :                    18
          number of electrons        :                    56
          charge                     :                    -1
          spin                       :                   0.0

   ID    Z sym.   atoms
    1    6 C      1-5, 8-10
    2    7 N      6, 7
    3   16 S      11
    4    1 H      12-18

          :  Hamiltonian                  GFN2-xTB          :
 * total energy  :   -29.8871571 Eh     change       -0.1924398E-09 Eh
 * total energy  :   -29.8995478 Eh     change       -0.1239071E-01 Eh
 * total energy  :   -29.9018904 Eh     change       -0.2342551E-02 Eh
 * total energy  :   -29.9021164 Eh     change       -0.2260313E-03 Eh
 * total energy  :   -29.9022104 Eh     change       -0.9401961E-04 Eh
 * total energy  :   -29.9022376 Eh     change       -0.2717740E-04 Eh
 * total energy  :   -29.9022586 Eh     change       -0.2102927E-04 Eh
 * total energy  :   -29.9022764 Eh     change       -0.1777038E-04 Eh
 * total energy  :   -29.9022924 Eh     change       -0.1599355E-04 Eh
 * total energy  :   -29.9023212 Eh     change       -0.2882594E-04 Eh
 * total energy  :   -29.9024779 Eh     change       -0.4518896E-04 Eh
 * total energy  :   -29.9024984 Eh     change       -0.2047607E-04 Eh
 * total energy  :   -29.9025198 Eh     change       -0.2142934E-04 Eh
 * total energy  :   -29.9025378 Eh     change       -0.1796627E-04 Eh
 * total energy  :   -29.9025505 Eh     change       -0.1270697E-04 Eh
 * total energy  :   -29.9025595 Eh     change       -0.9020064E-05 Eh
 * total energy  :   -29.9025737 Eh     change       -0.1424551E-04 Eh
 * total energy  :   -29.9025789 Eh     change       -0.5198508E-05 Eh
 * total energy  :   -29.9025808 Eh     change       -0.1893237E-05 Eh
   *** GEOMETRY OPTIMIZATION CONVERGED AFTER 22 ITERATIONS ***

 final structure:
================
18
 xtb: 6.4.1 (afa7bdf)
C         3.61456511390769   -0.34902835837509    0.04296471498940
C         2.28365672841207    0.28775888826398    0.25817462665251
C         1.04719174633432   -0.18835815715679   -0.01620935960201
C        -0.00138308335342    0.72295071445837    0.33922109244945
C        -1.38345526206987    0.38644435043090    0.12970941410031
N        -2.39441673218174    1.22759472094904    0.33474255220199
N        -3.51657872592153    0.54562985399399    0.03899202827085
C        -3.25384050318975   -0.72269187601400   -0.35572490916832
C        -1.89670007508972   -0.87039171425939   -0.31461528277026
C         0.38328410324072    1.94109764345559    0.90744394979407
S         2.14382773725774    1.88120171448112    0.97296613424029
H         4.27035715886156    0.30226648320949   -0.54011436091244
H         3.49750837573981   -1.29383315840723   -0.49156478077213
H         4.11324222691849   -0.55097378375844    0.99555181090282
H         0.88726790538314   -1.15916127663399   -0.47112352898067
H        -4.41178812724175    0.99632067903150    0.12892711579625
H        -4.04185212833250   -1.40251793119341   -0.62763225073778
H        -1.34088845867526   -1.75430879247570   -0.56025696645433

          :  Hamiltonian                  GFN2-xTB          :
         :: total energy             -29.902580834231 Eh    ::
         :: gradient norm              0.000352335664 Eh/a0 ::
         :: HOMO-LUMO gap              1.998778267751 eV    ::
         :: SCC energy               -30.318699237953 Eh    ::
         :: -> dispersion             -0.018535218675 Eh    ::
         :: repulsion energy           0.416161766885 Eh    ::

    * Orbital Energies and Occupations

         #    Occupation            Energy/Eh            Energy/eV
      -------------------------------------------------------------
         1        2.0000           -0.5402160             -14.7000
       ...           ...                  ...                  ...
        16        2.0000           -0.3360555              -9.1445
        17        2.0000           -0.3261550              -8.8751
        18        2.0000           -0.3155952              -8.5878
        19        2.0000           -0.2770658              -7.5393
        20        2.0000           -0.2703706              -7.3572
        21        2.0000           -0.2631821              -7.1615
        22        2.0000           -0.2546649              -6.9298
        23        2.0000           -0.2478340              -6.7439
        24        2.0000           -0.2343922              -6.3781
        25        2.0000           -0.2236007              -6.0845
        26        2.0000           -0.1898114              -5.1650
        27        2.0000           -0.1621624              -4.4127
        28        2.0000           -0.1386000              -3.7715 (HOMO)
        29                         -0.0651463              -1.7727 (LUMO)
        30                         -0.0331795              -0.9029
        31                         -0.0194028              -0.5280
        32                          0.0055630               0.1514
        33                          0.0829226               2.2564
        34                          0.0851586               2.3173
        35                          0.1463447               3.9822
        36                          0.1956584               5.3241
        37                          0.2102081               5.7201
        38                          0.2294587               6.2439
        39                          0.2527705               6.8782
       ...                                ...                  ...
        56                          0.8805912              23.9621
      -------------------------------------------------------------
                  HL-Gap            0.0734537 Eh            1.9988 eV

     #   Z          covCN         q      C6AA      α(0)
     1   6 C        3.768    -0.076    21.982     6.682
     2   6 C        2.973     0.004    27.920     8.667
     3   6 C        3.105    -0.066    29.494     8.898
     4   6 C        3.216    -0.044    28.367     8.664
     5   6 C        3.122     0.069    26.286     8.396
     6   7 N        1.987    -0.268    27.757     7.813
     7   7 N        2.974    -0.031    21.838     6.941
     8   6 C        2.977    -0.019    28.479     8.754
     9   6 C        3.024    -0.085    30.108     9.000
    10   6 C        1.973    -0.220    37.536     9.894
    11  16 S        2.397    -0.323   155.095    20.960
    12   1 H        0.924     0.010     2.892     2.659
    13   1 H        0.924    -0.001     3.071     2.740
    14   1 H        0.924     0.007     2.934     2.678
    15   1 H        0.925    -0.051     4.123     3.175
    16   1 H        0.860     0.122     1.607     1.986
    17   1 H        0.926    -0.019     3.403     2.885
    18   1 H        0.926    -0.012     3.266     2.826

Wiberg/Mayer (AO) data.
largest (>0.10) Wiberg bond orders for each atom

     #   Z sym  total        # sym  WBO       # sym  WBO       # sym  WBO
 ---------------------------------------------------------------------------
     1   6 C    3.994 --     2 C    1.022    13 H    0.984    12 H    0.980
                            14 H    0.978
     2   6 C    3.935 --     3 C    1.635    11 S    1.097     1 C    1.022
                            10 C    0.108
     3   6 C    3.974 --     2 C    1.635     4 C    1.196    15 H    0.959
     4   6 C    3.952 --    10 C    1.482     3 C    1.196     5 C    1.120
     5   6 C    3.963 --     6 N    1.444     9 C    1.249     4 C    1.120
     6   7 N    2.927 --     5 C    1.444     7 N    1.160     8 C    0.161
     7   7 N    3.565 --     8 C    1.240     6 N    1.160    16 H    0.955
                             9 C    0.103
     8   6 C    3.947 --     9 C    1.556     7 N    1.240    17 H    0.968
                             6 N    0.161
     9   6 C    3.970 --     8 C    1.556     5 C    1.249    18 H    0.973
                             7 N    0.103
    10   6 C    2.976 --     4 C    1.482    11 S    1.229     2 C    0.108
    11  16 S    2.530 --    10 C    1.229     2 C    1.097
    12   1 H    0.999 --     1 C    0.980
    13   1 H    1.000 --     1 C    0.984
    14   1 H    0.999 --     1 C    0.978
    15   1 H    0.997 --     3 C    0.959
    16   1 H    0.985 --     7 N    0.955
    17   1 H    0.999 --     8 C    0.968
    18   1 H    1.000 --     9 C    0.973
 ---------------------------------------------------------------------------

molecular dipole:
                 x           y           z       tot (Debye)
 q only:       -1.233      -1.943      -0.977
   full:       -1.438      -3.242      -1.527       9.814

           -------------------------------------------------
          | TOTAL ENERGY              -29.902580834231 Eh   |
          | GRADIENT NORM               0.000352335664 Eh/α |
          | HOMO-LUMO GAP               1.998778267751 eV   |
           -------------------------------------------------

 * finished run on 2022/11/02 at 18:13:41.407
