   * xtb version 6.4.1 (afa7bdf) compiled by 'ehlert@majestix' on 2021-06-10
          program call               : /lustre/hpc/kemi/borup/pKalculator/dep/xtb-6.4.1/bin/xtb --gfn 2 /lustre/hpc/kemi/borup/pKalculator/calc/test#-1=7/conf06/test#-1=7_conf06_gfn2.xyz --opt --lmo --chrg -1 --uhf 0
          number of atoms            :                    18
          number of electrons        :                    56
          charge                     :                    -1
          spin                       :                   0.0

   ID    Z sym.   atoms
    1    6 C      1-5, 8-10
    2    7 N      6, 7
    3   16 S      11
    4    1 H      12-18

          :  Hamiltonian                  GFN2-xTB          :
 * total energy  :   -29.8868789 Eh     change       -0.1951577E-09 Eh
 * total energy  :   -29.8993110 Eh     change       -0.1243204E-01 Eh
 * total energy  :   -29.9016884 Eh     change       -0.2377400E-02 Eh
 * total energy  :   -29.9019215 Eh     change       -0.2330694E-03 Eh
 * total energy  :   -29.9020134 Eh     change       -0.9197036E-04 Eh
 * total energy  :   -29.9020361 Eh     change       -0.2266083E-04 Eh
 * total energy  :   -29.9020494 Eh     change       -0.1335572E-04 Eh
 * total energy  :   -29.9020568 Eh     change       -0.7361607E-05 Eh
 * total energy  :   -29.9020644 Eh     change       -0.7602805E-05 Eh
 * total energy  :   -29.9020818 Eh     change       -0.1739791E-04 Eh
 * total energy  :   -29.9025489 Eh     change       -0.7036764E-05 Eh
 * total energy  :   -29.9025618 Eh     change       -0.1290075E-04 Eh
 * total energy  :   -29.9025722 Eh     change       -0.1043540E-04 Eh
 * total energy  :   -29.9025861 Eh     change       -0.1385167E-04 Eh
 * total energy  :   -29.9025887 Eh     change       -0.2672917E-05 Eh
 * total energy  :   -29.9025965 Eh     change       -0.7814018E-05 Eh
 * total energy  :   -29.9025921 Eh     change        0.4462243E-05 Eh
 * total energy  :   -29.9025987 Eh     change       -0.6633437E-05 Eh
 * total energy  :   -29.9025998 Eh     change       -0.1049096E-05 Eh
   *** GEOMETRY OPTIMIZATION CONVERGED AFTER 35 ITERATIONS ***

 final structure:
================
18
 xtb: 6.4.1 (afa7bdf)
C        -3.63083330094734   -0.05544363482626    0.01572901372855
C        -2.25005477627498    0.39084737711518    0.35811446175327
C        -1.05922175842614   -0.08937318385641   -0.06846412556105
C         0.06378412564508    0.61044633063116    0.48422328800772
C         1.41152969847586    0.23749856216619    0.15044808729488
N         2.49129346743717    0.89880068773229    0.56100657746150
N         3.55020279941274    0.24386597755316    0.04950570999027
C         3.17890384263240   -0.83010186283403   -0.68694632631342
C         1.81431913130036   -0.87410734748422   -0.65137996314239
C        -0.21504856995353    1.66054335158244    1.36440786447033
S        -1.97348616361799    1.72349906597318    1.46147991789354
H        -4.20129365152448    0.75386279296479   -0.44844487510131
H        -3.59247175208707   -0.89560644547639   -0.68061800294646
H        -4.17486821648173   -0.37088775782015    0.91034959523978
H        -0.98364555683985   -0.91635405716641   -0.76511612112393
H         4.48103102196875    0.57646798024803    0.23810502686458
H         3.90509120694448   -1.46283684739045   -1.16589009214944
H         1.18476745233629   -1.60111998911210   -1.12651003636640

          :  Hamiltonian                  GFN2-xTB          :
         :: total energy             -29.902599758704 Eh    ::
         :: gradient norm              0.000144783939 Eh/a0 ::
         :: HOMO-LUMO gap              1.999202163711 eV    ::
         :: SCC energy               -30.318669176710 Eh    ::
         :: -> dispersion             -0.018535432549 Eh    ::
         :: repulsion energy           0.416112867870 Eh    ::

    * Orbital Energies and Occupations

         #    Occupation            Energy/Eh            Energy/eV
      -------------------------------------------------------------
         1        2.0000           -0.5401558             -14.6984
       ...           ...                  ...                  ...
        16        2.0000           -0.3360703              -9.1449
        17        2.0000           -0.3261058              -8.8738
        18        2.0000           -0.3155713              -8.5871
        19        2.0000           -0.2770541              -7.5390
        20        2.0000           -0.2704474              -7.3592
        21        2.0000           -0.2631827              -7.1616
        22        2.0000           -0.2546249              -6.9287
        23        2.0000           -0.2478507              -6.7444
        24        2.0000           -0.2343573              -6.3772
        25        2.0000           -0.2236102              -6.0847
        26        2.0000           -0.1898542              -5.1662
        27        2.0000           -0.1621616              -4.4126
        28        2.0000           -0.1385914              -3.7713 (HOMO)
        29                         -0.0651221              -1.7721 (LUMO)
        30                         -0.0331883              -0.9031
        31                         -0.0194321              -0.5288
        32                          0.0055879               0.1521
        33                          0.0833425               2.2679
        34                          0.0849946               2.3128
        35                          0.1463112               3.9813
        36                          0.1956651               5.3243
        37                          0.2101208               5.7177
        38                          0.2295117               6.2453
        39                          0.2527834               6.8786
       ...                                ...                  ...
        56                          0.8807917              23.9676
      -------------------------------------------------------------
                  HL-Gap            0.0734693 Eh            1.9992 eV

     #   Z          covCN         q      C6AA      α(0)
     1   6 C        3.768    -0.076    21.981     6.682
     2   6 C        2.972     0.004    27.921     8.667
     3   6 C        3.106    -0.066    29.492     8.898
     4   6 C        3.216    -0.044    28.367     8.664
     5   6 C        3.121     0.069    26.287     8.397
     6   7 N        1.987    -0.268    27.757     7.814
     7   7 N        2.974    -0.031    21.839     6.941
     8   6 C        2.977    -0.019    28.480     8.754
     9   6 C        3.024    -0.085    30.108     9.001
    10   6 C        1.973    -0.220    37.532     9.893
    11  16 S        2.397    -0.322   155.088    20.960
    12   1 H        0.924     0.009     2.913     2.669
    13   1 H        0.924    -0.001     3.071     2.741
    14   1 H        0.924     0.009     2.912     2.669
    15   1 H        0.925    -0.051     4.123     3.175
    16   1 H        0.860     0.122     1.607     1.986
    17   1 H        0.926    -0.019     3.404     2.885
    18   1 H        0.926    -0.012     3.267     2.826

Wiberg/Mayer (AO) data.
largest (>0.10) Wiberg bond orders for each atom

     #   Z sym  total        # sym  WBO       # sym  WBO       # sym  WBO
 ---------------------------------------------------------------------------
     1   6 C    3.994 --     2 C    1.022    13 H    0.984    14 H    0.979
                            12 H    0.979
     2   6 C    3.935 --     3 C    1.635    11 S    1.097     1 C    1.022
                            10 C    0.108
     3   6 C    3.974 --     2 C    1.635     4 C    1.196    15 H    0.959
     4   6 C    3.952 --    10 C    1.481     3 C    1.196     5 C    1.121
     5   6 C    3.963 --     6 N    1.444     9 C    1.249     4 C    1.121
     6   7 N    2.927 --     5 C    1.444     7 N    1.160     8 C    0.161
     7   7 N    3.564 --     8 C    1.240     6 N    1.160    16 H    0.955
                             9 C    0.103
     8   6 C    3.947 --     9 C    1.556     7 N    1.240    17 H    0.968
                             6 N    0.161
     9   6 C    3.970 --     8 C    1.556     5 C    1.249    18 H    0.973
                             7 N    0.103
    10   6 C    2.976 --     4 C    1.481    11 S    1.230     2 C    0.108
    11  16 S    2.531 --    10 C    1.230     2 C    1.097
    12   1 H    0.999 --     1 C    0.979
    13   1 H    1.000 --     1 C    0.984
    14   1 H    0.999 --     1 C    0.979
    15   1 H    0.997 --     3 C    0.959
    16   1 H    0.985 --     7 N    0.955
    17   1 H    0.999 --     8 C    0.968
    18   1 H    1.000 --     9 C    0.973
 ---------------------------------------------------------------------------

molecular dipole:
                 x           y           z       tot (Debye)
 q only:        1.059      -1.719      -1.421
   full:        1.151      -2.829      -2.311       9.735

           -------------------------------------------------
          | TOTAL ENERGY              -29.902599758704 Eh   |
          | GRADIENT NORM               0.000144783939 Eh/α |
          | HOMO-LUMO GAP               1.999202163711 eV   |
           -------------------------------------------------

 * finished run on 2022/11/02 at 18:13:41.708
