   * xtb version 6.4.1 (afa7bdf) compiled by 'ehlert@majestix' on 2021-06-10
          program call               : /lustre/hpc/kemi/borup/pKalculator/dep/xtb-6.4.1/bin/xtb --gfn 2 /lustre/hpc/kemi/borup/pKalculator/calc/test#-1=4/conf01/test#-1=4_conf01_gfn2.xyz --opt --lmo --chrg -1 --uhf 0
          number of atoms            :                    18
          number of electrons        :                    56
          charge                     :                    -1
          spin                       :                   0.0

   ID    Z sym.   atoms
    1    6 C      1-5, 8-10
    2    7 N      6, 7
    3   16 S      11
    4    1 H      12-18

          :  Hamiltonian                  GFN2-xTB          :
 * total energy  :   -29.8716505 Eh     change       -0.6166481E-09 Eh
 * total energy  :   -29.8877610 Eh     change       -0.1611057E-01 Eh
 * total energy  :   -29.8916225 Eh     change       -0.3861451E-02 Eh
 * total energy  :   -29.8924830 Eh     change       -0.8605263E-03 Eh
 * total energy  :   -29.8935178 Eh     change       -0.1034814E-02 Eh
 * total energy  :   -29.8944704 Eh     change       -0.9525747E-03 Eh
 * total energy  :   -29.8959579 Eh     change       -0.1487477E-02 Eh
 * total energy  :   -29.8997591 Eh     change       -0.3801233E-02 Eh
 * total energy  :   -29.8999556 Eh     change       -0.1964963E-03 Eh
 * total energy  :   -29.9040641 Eh     change       -0.4108495E-02 Eh
 * total energy  :   -29.9227693 Eh     change       -0.2082943E-03 Eh
 * total energy  :   -29.9229722 Eh     change       -0.2029111E-03 Eh
 * total energy  :   -29.9231933 Eh     change       -0.2211046E-03 Eh
 * total energy  :   -29.9233438 Eh     change       -0.1504833E-03 Eh
 * total energy  :   -29.9234204 Eh     change       -0.7661386E-04 Eh
 * total energy  :   -29.9234602 Eh     change       -0.3971568E-04 Eh
 * total energy  :   -29.9234746 Eh     change       -0.1442421E-04 Eh
 * total energy  :   -29.9234834 Eh     change       -0.8841103E-05 Eh
 * total energy  :   -29.9234871 Eh     change       -0.3633427E-05 Eh
   *** GEOMETRY OPTIMIZATION CONVERGED AFTER 31 ITERATIONS ***

 final structure:
================
18
 xtb: 6.4.1 (afa7bdf)
C         3.52804079475133   -1.44089597064917    0.00642087468463
C         2.33464860867658   -0.61844487513324    0.08439079228039
C         1.32937232265159    0.04155002889591    0.13662407021673
C         0.18617050690144    0.86601595981068    0.21438989837511
C        -1.09102662489026    0.23992333301409    0.01751488017680
N        -1.21641382266175   -1.06861399320247   -0.22065226746176
N        -2.53742168906451   -1.29789454672332   -0.35080731701662
C        -3.26690105453065   -0.16693187542298   -0.20241380710299
C        -2.38321129426881    0.84606040252583    0.03580746872429
C         0.30445480998230    2.21228990647504    0.46864724468062
S         1.71907844047767    3.08409738339897    0.71926546983148
H         3.35530482284972   -2.41000751820078    0.48186191389059
H         3.81099632337070   -1.61149065311744   -1.03606540279051
H         4.35862821729094   -0.94627465753786    0.51360074729256
H        -2.86405206577947   -2.23064938693255   -0.53767371234102
H        -4.33898226615762   -0.17785687232070   -0.27724108788040
H        -2.61793594084690    1.87838683869219    0.20021734463646
H        -0.61075008875170    2.80073449642796    0.51756588980387

          :  Hamiltonian                  GFN2-xTB          :
         :: total energy             -29.923487058282 Eh    ::
         :: gradient norm              0.000903911901 Eh/a0 ::
         :: HOMO-LUMO gap              1.784934250238 eV    ::
         :: SCC energy               -30.415965499687 Eh    ::
         :: -> dispersion             -0.017068503368 Eh    ::
         :: repulsion energy           0.492478940548 Eh    ::

    * Orbital Energies and Occupations

         #    Occupation            Energy/Eh            Energy/eV
      -------------------------------------------------------------
         1        2.0000           -0.5543933             -15.0858
       ...           ...                  ...                  ...
        16        2.0000           -0.3523341              -9.5875
        17        2.0000           -0.3465046              -9.4289
        18        2.0000           -0.3251128              -8.8468
        19        2.0000           -0.2990180              -8.1367
        20        2.0000           -0.2963877              -8.0651
        21        2.0000           -0.2689322              -7.3180
        22        2.0000           -0.2637134              -7.1760
        23        2.0000           -0.2541192              -6.9149
        24        2.0000           -0.2487309              -6.7683
        25        2.0000           -0.2336775              -6.3587
        26        2.0000           -0.2277330              -6.1969
        27        2.0000           -0.1592042              -4.3322
        28        2.0000           -0.1499672              -4.0808 (HOMO)
        29                         -0.0843721              -2.2959 (LUMO)
        30                         -0.0621228              -1.6904
        31                         -0.0065237              -0.1775
        32                          0.0136751               0.3721
        33                          0.0525247               1.4293
        34                          0.0914550               2.4886
        35                          0.1349067               3.6710
        36                          0.2005343               5.4568
        37                          0.2055937               5.5945
        38                          0.2061982               5.6109
        39                          0.2102602               5.7215
       ...                                ...                  ...
        56                          1.5859322              43.1554
      -------------------------------------------------------------
                  HL-Gap            0.0655951 Eh            1.7849 eV

     #   Z          covCN         q      C6AA      α(0)
     1   6 C        3.752    -0.064    21.794     6.657
     2   6 C        1.960    -0.087    33.456     9.341
     3   6 C        1.984    -0.032    31.895     9.120
     4   6 C        2.987    -0.040    28.975     8.830
     5   6 C        3.132     0.070    26.238     8.386
     6   7 N        1.985    -0.280    28.072     7.858
     7   7 N        2.969    -0.030    21.813     6.937
     8   6 C        2.981    -0.014    28.363     8.736
     9   6 C        3.018    -0.083    30.055     8.993
    10   6 C        2.900     0.063    26.581     8.453
    11  16 S        1.018    -0.644   168.683    21.967
    12   1 H        0.924     0.016     2.797     2.615
    13   1 H        0.924     0.017     2.782     2.608
    14   1 H        0.924     0.026     2.649     2.545
    15   1 H        0.860     0.126     1.580     1.969
    16   1 H        0.926    -0.010     3.241     2.815
    17   1 H        0.926    -0.002     3.088     2.748
    18   1 H        0.925    -0.032     3.671     2.996

Wiberg/Mayer (AO) data.
largest (>0.10) Wiberg bond orders for each atom

     #   Z sym  total        # sym  WBO       # sym  WBO       # sym  WBO
 ---------------------------------------------------------------------------
     1   6 C    3.998 --     2 C    1.054    12 H    0.973    14 H    0.972
                            13 H    0.972
     2   6 C    3.969 --     3 C    2.729     1 C    1.054
     3   6 C    3.977 --     2 C    2.729     4 C    1.124
     4   6 C    3.962 --    10 C    1.478     5 C    1.126     3 C    1.124
                            11 S    0.134
     5   6 C    3.970 --     6 N    1.423     9 C    1.248     4 C    1.126
     6   7 N    2.919 --     5 C    1.423     7 N    1.156     8 C    0.155
     7   7 N    3.554 --     8 C    1.242     6 N    1.156    15 H    0.955
                             9 C    0.100
     8   6 C    3.949 --     9 C    1.562     7 N    1.242    16 H    0.969
                             6 N    0.155
     9   6 C    3.973 --     8 C    1.562     5 C    1.248    17 H    0.972
                             7 N    0.100
    10   6 C    3.975 --     4 C    1.478    11 S    1.369    18 H    0.964
    11  16 S    1.677 --    10 C    1.369     4 C    0.134
    12   1 H    0.997 --     1 C    0.973
    13   1 H    0.994 --     1 C    0.972
    14   1 H    0.999 --     1 C    0.972
    15   1 H    0.984 --     7 N    0.955
    16   1 H    0.999 --     8 C    0.969
    17   1 H    1.000 --     9 C    0.972
    18   1 H    0.998 --    10 C    0.964
 ---------------------------------------------------------------------------

molecular dipole:
                 x           y           z       tot (Debye)
 q only:       -1.973      -3.605      -0.867
   full:       -2.723      -3.871      -0.968      12.278

           -------------------------------------------------
          | TOTAL ENERGY              -29.923487058282 Eh   |
          | GRADIENT NORM               0.000903911901 Eh/α |
          | HOMO-LUMO GAP               1.784934250238 eV   |
           -------------------------------------------------

 * finished run on 2022/11/02 at 18:13:36.604
