   * xtb version 6.4.1 (afa7bdf) compiled by 'ehlert@majestix' on 2021-06-10
          program call               : /lustre/hpc/kemi/borup/pKalculator/dep/xtb-6.4.1/bin/xtb --gfn 2 /lustre/hpc/kemi/borup/pKalculator/calc/furan/conf01/furan_conf01_gfn2.xyz --opt --lmo --chrg 0 --uhf 0 --alpb DMSO
          number of atoms            :                     9
          number of electrons        :                    26
          charge                     :                     0

   ID    Z sym.   atoms
    1    8 O      1
    2    6 C      2-5
    3    1 H      6-9

        Solvent                        DMSO
        Solvent mass                       7.8130E+01 g/mol
          :  Hamiltonian                  GFN2-xTB          :
 * total energy  :   -14.6466842 Eh     change       -0.2991385E-10 Eh
 * total energy  :   -14.6498959 Eh     change       -0.3211683E-02 Eh
 * total energy  :   -14.6508834 Eh     change       -0.9875103E-03 Eh
 * total energy  :   -14.6509488 Eh     change       -0.6539798E-04 Eh
 * total energy  :   -14.6509736 Eh     change       -0.2475659E-04 Eh
 * total energy  :   -14.6509741 Eh     change       -0.5104528E-06 Eh
   *** GEOMETRY OPTIMIZATION CONVERGED AFTER 6 ITERATIONS ***

 final structure:
================
9
 xtb: 6.4.1 (afa7bdf)
O        -0.00718659044997   -1.34851036626698   -0.35173692942520
C         1.06659210838356   -0.53841170591275   -0.34503715822193
C         0.70528339741234    0.73304397789232   -0.02540239349425
C        -0.69747322147279    0.69826881576931    0.17829940420209
C        -1.07261421407754   -0.59141876001503   -0.03428998640726
H         2.01488931543080   -0.97897192622552   -0.58014023506286
H         1.34781101533355    1.58551415546349    0.05658425005080
H        -1.33099881846831    1.51912079743361    0.44470860685276
H        -2.02630399209165   -1.07863398813846    0.00723044150587

          :  Hamiltonian                  GFN2-xTB          :
         :: total energy             -14.650974068722 Eh    ::
         :: gradient norm              0.000529023128 Eh/a0 ::
         :: HOMO-LUMO gap              4.928059072830 eV    ::
         :: SCC energy               -14.862795656488 Eh    ::
         :: -> dispersion             -0.004714552793 Eh    ::
         :: -> Gsolv                  -0.006055684508 Eh    ::
         :: repulsion energy           0.211820521963 Eh    ::

    * Orbital Energies and Occupations

         #    Occupation            Energy/Eh            Energy/eV
      -------------------------------------------------------------
         1        2.0000           -0.7357172             -20.0199
         2        2.0000           -0.6581241             -17.9085
         3        2.0000           -0.6524436             -17.7539
         4        2.0000           -0.5846764             -15.9099
         5        2.0000           -0.5708505             -15.5336
         6        2.0000           -0.5616399             -15.2830
         7        2.0000           -0.5542481             -15.0819
         8        2.0000           -0.4958992             -13.4941
         9        2.0000           -0.4744621             -12.9108
        10        2.0000           -0.4637792             -12.6201
        11        2.0000           -0.4580634             -12.4645
        12        2.0000           -0.4221628             -11.4876
        13        2.0000           -0.3900849             -10.6148 (HOMO)
        14                         -0.2089821              -5.6867 (LUMO)
        15                         -0.1565757              -4.2606
        16                          0.0998266               2.7164
        17                          0.1221766               3.3246
        18                          0.1593183               4.3353
        19                          0.1690485               4.6000
        20                          0.2646109               7.2004
        21                          0.2770513               7.5389
        22                          0.4363346              11.8733
        23                          0.5126814              13.9508
        24                          0.7112416              19.3539
      -------------------------------------------------------------
                  HL-Gap            0.1811028 Eh            4.9281 eV

     #   Z          covCN         q      C6AA      α(0)
     1   8 O        1.730    -0.185    17.091     5.582
     2   6 C        3.074     0.061    26.567     8.451
     3   6 C        3.021    -0.067    29.632     8.929
     4   6 C        3.021    -0.067    29.633     8.929
     5   6 C        3.074     0.061    26.567     8.451
     6   1 H        0.926     0.054     2.268     2.355
     7   1 H        0.926     0.044     2.392     2.419
     8   1 H        0.926     0.044     2.393     2.419
     9   1 H        0.926     0.054     2.267     2.355

Wiberg/Mayer (AO) data.
largest (>0.10) Wiberg bond orders for each atom

     #   Z sym  total        # sym  WBO       # sym  WBO       # sym  WBO
 ---------------------------------------------------------------------------
     1   8 O    2.446 --     5 C    1.136     2 C    1.136
     2   6 C    3.906 --     3 C    1.615     1 O    1.136     6 H    0.967
                             5 C    0.152
     3   6 C    3.984 --     2 C    1.615     4 C    1.289     7 H    0.975
     4   6 C    3.984 --     5 C    1.615     3 C    1.289     8 H    0.975
     5   6 C    3.906 --     4 C    1.615     1 O    1.136     9 H    0.967
                             2 C    0.152
     6   1 H    0.997 --     2 C    0.967
     7   1 H    0.998 --     3 C    0.975
     8   1 H    0.998 --     4 C    0.975
     9   1 H    0.997 --     5 C    0.967
 ---------------------------------------------------------------------------

molecular dipole:
                 x           y           z       tot (Debye)
 q only:        0.001       0.211       0.043
   full:        0.001       0.175       0.036       0.455

           -------------------------------------------------
          | TOTAL ENERGY              -14.650974068722 Eh   |
          | GRADIENT NORM               0.000529023128 Eh/α |
          | HOMO-LUMO GAP               4.928059072830 eV   |
           -------------------------------------------------

 * finished run on 2022/11/04 at 10:55:57.932
