   * xtb version 6.4.1 (afa7bdf) compiled by 'ehlert@majestix' on 2021-06-10
          program call               : /lustre/hpc/kemi/borup/pKalculator/dep/xtb-6.4.1/bin/xtb --gfn 2 /lustre/hpc/kemi/borup/pKalculator/calc/test#-1=8/conf02/test#-1=8_conf02_gfn2.xyz --opt --lmo --chrg -1 --uhf 0
          number of atoms            :                    18
          number of electrons        :                    56
          charge                     :                    -1
          spin                       :                   0.0

   ID    Z sym.   atoms
    1    6 C      1-5, 8-10
    2    7 N      6, 7
    3   16 S      11
    4    1 H      12-18

          :  Hamiltonian                  GFN2-xTB          :
 * total energy  :   -29.9193052 Eh     change       -0.2080753E-09 Eh
 * total energy  :   -29.9238751 Eh     change       -0.4569845E-02 Eh
 * total energy  :   -29.9249590 Eh     change       -0.1083946E-02 Eh
 * total energy  :   -29.9250760 Eh     change       -0.1170125E-03 Eh
 * total energy  :   -29.9251427 Eh     change       -0.6667068E-04 Eh
 * total energy  :   -29.9251547 Eh     change       -0.1200781E-04 Eh
 * total energy  :   -29.9251625 Eh     change       -0.7848361E-05 Eh
 * total energy  :   -29.9251672 Eh     change       -0.4616060E-05 Eh
   *** GEOMETRY OPTIMIZATION CONVERGED AFTER 8 ITERATIONS ***

 final structure:
================
18
 xtb: 6.4.1 (afa7bdf)
C         3.79831492690168   -0.21278213402236    0.21726362485190
C         2.54899642367174    0.27661486240187    0.00440007801417
C         1.29043871634265   -0.30651848227101    0.23298281265096
C         0.19766546141667    0.50880231958569   -0.10539452663951
C        -1.17840115246963    0.10246487931918    0.05005580501017
N        -2.21104934089065    0.91402165336215   -0.15441844552336
N        -3.31199998768029    0.18425075773114    0.08254327312764
C        -3.01311494171299   -1.08790195037100    0.43777852790801
C        -1.64979679796725   -1.18451546548579    0.42972680448672
C         0.55089359008792    1.74205884668392   -0.60304308779407
S         2.29279088123798    1.91031849478672   -0.67533093679329
H         4.68256762869677    0.35710110160306   -0.01091137116407
H         3.93463336765735   -1.20081242436688    0.62772200698838
H         1.20474027169989   -1.29454312821033    0.65608265386627
H        -4.22066278620242    0.60679890292984   -0.01072322422116
H        -3.78240927129650   -1.80377797976807    0.66112770809544
H        -1.05677032092207   -2.04695886539252    0.65547059837499
H        -0.07683566857087    2.53537761148430   -0.95242630123917

          :  Hamiltonian                  GFN2-xTB          :
         :: total energy             -29.925167161363 Eh    ::
         :: gradient norm              0.000612297044 Eh/a0 ::
         :: HOMO-LUMO gap              0.585982643636 eV    ::
         :: SCC energy               -30.369926571456 Eh    ::
         :: -> dispersion             -0.019012294585 Eh    ::
         :: repulsion energy           0.444796306790 Eh    ::

    * Orbital Energies and Occupations

         #    Occupation            Energy/Eh            Energy/eV
      -------------------------------------------------------------
         1        2.0000           -0.5617898             -15.2871
       ...           ...                  ...                  ...
        16        2.0000           -0.3239561              -8.8153
        17        2.0000           -0.2970479              -8.0831
        18        2.0000           -0.2958852              -8.0514
        19        2.0000           -0.2749688              -7.4823
        20        2.0000           -0.2731153              -7.4318
        21        2.0000           -0.2652072              -7.2167
        22        2.0000           -0.2620801              -7.1316
        23        2.0000           -0.2575293              -7.0077
        24        2.0000           -0.2529452              -6.8830
        25        2.0000           -0.2423388              -6.5944
        26        2.0000           -0.2073410              -5.6420
        27        2.0000           -0.1950953              -5.3088
        28        2.0000           -0.1094791              -2.9791 (HOMO)
        29        0.0000           -0.0879446              -2.3931 (LUMO)
        30                         -0.0489557              -1.3322
        31                         -0.0146844              -0.3996
        32                          0.0131659               0.3583
        33                          0.0666135               1.8126
        34                          0.0748579               2.0370
        35                          0.1288915               3.5073
        36                          0.1837872               5.0011
        37                          0.2162723               5.8851
        38                          0.2223132               6.0495
        39                          0.2390777               6.5056
       ...                                ...                  ...
        56                          0.8854469              24.0942
      -------------------------------------------------------------
                  HL-Gap            0.0215345 Eh            0.5860 eV

     #   Z          covCN         q      C6AA      α(0)
     1   6 C        2.874    -0.193    33.065     9.426
     2   6 C        2.960     0.047    26.932     8.512
     3   6 C        3.071    -0.130    31.228     9.163
     4   6 C        3.123    -0.027    28.497     8.742
     5   6 C        3.135     0.073    26.158     8.372
     6   7 N        1.990    -0.266    27.703     7.806
     7   7 N        2.980    -0.023    21.683     6.916
     8   6 C        2.987    -0.016    28.407     8.743
     9   6 C        3.025    -0.077    29.899     8.969
    10   6 C        2.926    -0.057    29.405     8.893
    11  16 S        2.276    -0.303   154.198    20.900
    12   1 H        0.926    -0.043     3.922     3.097
    13   1 H        0.926    -0.049     4.069     3.154
    14   1 H        0.926    -0.045     3.973     3.117
    15   1 H        0.860     0.129     1.554     1.953
    16   1 H        0.926    -0.006     3.173     2.785
    17   1 H        0.926     0.009     2.909     2.667
    18   1 H        0.927    -0.024     3.501     2.926

Wiberg/Mayer (AO) data.
largest (>0.10) Wiberg bond orders for each atom

     #   Z sym  total        # sym  WBO       # sym  WBO       # sym  WBO
 ---------------------------------------------------------------------------
     1   6 C    3.860 --     2 C    1.568    12 H    0.980    13 H    0.972
                             3 C    0.115    11 S    0.100
     2   6 C    3.931 --     1 C    1.568     3 C    1.287    11 S    1.006
     3   6 C    3.911 --     4 C    1.300     2 C    1.287    14 H    0.963
                            10 C    0.147     1 C    0.115
     4   6 C    3.975 --    10 C    1.449     3 C    1.300     5 C    1.089
     5   6 C    3.967 --     6 N    1.458     9 C    1.270     4 C    1.089
     6   7 N    2.933 --     5 C    1.458     7 N    1.172     8 C    0.163
     7   7 N    3.575 --     8 C    1.244     6 N    1.172    15 H    0.953
     8   6 C    3.950 --     9 C    1.554     7 N    1.244    16 H    0.969
                             6 N    0.163
     9   6 C    3.976 --     8 C    1.554     5 C    1.270    17 H    0.974
    10   6 C    3.871 --     4 C    1.449    11 S    1.076    18 H    0.972
                             3 C    0.147
    11  16 S    2.358 --    10 C    1.076     2 C    1.006     1 C    0.100
    12   1 H    0.998 --     1 C    0.980
    13   1 H    0.997 --     1 C    0.972
    14   1 H    0.998 --     3 C    0.963
    15   1 H    0.983 --     7 N    0.953
    16   1 H    0.999 --     8 C    0.969
    17   1 H    1.000 --     9 C    0.974
    18   1 H    0.999 --    10 C    0.972
 ---------------------------------------------------------------------------

molecular dipole:
                 x           y           z       tot (Debye)
 q only:       -3.271      -1.160       0.255
   full:       -3.864      -1.827       0.491      10.936

           -------------------------------------------------
          | TOTAL ENERGY              -29.925167161363 Eh   |
          | GRADIENT NORM               0.000612297044 Eh/α |
          | HOMO-LUMO GAP               0.585982643636 eV   |
           -------------------------------------------------

 * finished run on 2022/11/02 at 18:13:42.751
