   * xtb version 6.4.1 (afa7bdf) compiled by 'ehlert@majestix' on 2021-06-10
          program call               : /lustre/hpc/kemi/borup/pKalculator/dep/xtb-6.4.1/bin/xtb --gfn 2 /lustre/hpc/kemi/borup/pKalculator/calc/test#-1=7/conf03/test#-1=7_conf03_gfn2.xyz --opt --lmo --chrg -1 --uhf 0
          number of atoms            :                    18
          number of electrons        :                    56
          charge                     :                    -1
          spin                       :                   0.0

   ID    Z sym.   atoms
    1    6 C      1-5, 8-10
    2    7 N      6, 7
    3   16 S      11
    4    1 H      12-18

          :  Hamiltonian                  GFN2-xTB          :
 * total energy  :   -29.8920510 Eh     change       -0.1921876E-09 Eh
 * total energy  :   -29.9046006 Eh     change       -0.1254958E-01 Eh
 * total energy  :   -29.9071758 Eh     change       -0.2575197E-02 Eh
 * total energy  :   -29.9074552 Eh     change       -0.2793970E-03 Eh
 * total energy  :   -29.9075506 Eh     change       -0.9544196E-04 Eh
 * total energy  :   -29.9075703 Eh     change       -0.1967541E-04 Eh
 * total energy  :   -29.9075880 Eh     change       -0.1771292E-04 Eh
 * total energy  :   -29.9076068 Eh     change       -0.1872399E-04 Eh
 * total energy  :   -29.9076224 Eh     change       -0.1563447E-04 Eh
 * total energy  :   -29.9076512 Eh     change       -0.2881342E-04 Eh
 * total energy  :   -29.9078903 Eh     change       -0.4524030E-04 Eh
 * total energy  :   -29.9079109 Eh     change       -0.2058977E-04 Eh
 * total energy  :   -29.9079353 Eh     change       -0.2441345E-04 Eh
 * total energy  :   -29.9079807 Eh     change       -0.4539225E-04 Eh
 * total energy  :   -29.9080020 Eh     change       -0.2127368E-04 Eh
 * total energy  :   -29.9079884 Eh     change        0.1351907E-04 Eh
 * total energy  :   -29.9080578 Eh     change       -0.6934226E-04 Eh
 * total energy  :   -29.9080662 Eh     change       -0.8408891E-05 Eh
 * total energy  :   -29.9080693 Eh     change       -0.3085200E-05 Eh
   *** GEOMETRY OPTIMIZATION CONVERGED AFTER 24 ITERATIONS ***

 final structure:
================
18
 xtb: 6.4.1 (afa7bdf)
C        -3.64923187884470   -0.25635085556977   -0.76929022995800
C        -2.32086272061728   -0.33369122898080   -0.09659852725868
C        -1.09857966311654    0.02136318333653   -0.55283501120607
C        -0.05764224511438   -0.20249511990394    0.40494599432664
C         1.31579136747897    0.10296979422777    0.12621214921733
N         1.74848958166694    0.62344414780000   -1.02183976343339
N         3.08493568373692    0.75801174188670   -0.88545371411132
C         3.51628895231139    0.33324289722795    0.32890172567395
C         2.41559331050495   -0.09525075587224    1.01097671746591
C        -0.42733644439674   -0.73769067824380    1.64234672630744
S        -2.17472234896583   -0.94872659096190    1.54041661566718
H        -4.15211370186918   -1.22617128871483   -0.75441469627939
H        -3.52488115013981    0.05645920080808   -1.80708533423529
H        -4.30390956493287    0.46221516823727   -0.26751494796975
H        -0.91430850984839    0.43001842407955   -1.53694428079497
H         3.63008344509144    1.13788832685074   -1.64106640181669
H         4.55788283446260    0.37473936012194    0.59372380902063
H         2.35452105259258   -0.49997472632935    1.99987616938444

          :  Hamiltonian                  GFN2-xTB          :
         :: total energy             -29.908069270879 Eh    ::
         :: gradient norm              0.000656223563 Eh/a0 ::
         :: HOMO-LUMO gap              2.124257027600 eV    ::
         :: SCC energy               -30.325763901887 Eh    ::
         :: -> dispersion             -0.018439943871 Eh    ::
         :: repulsion energy           0.417748731324 Eh    ::

    * Orbital Energies and Occupations

         #    Occupation            Energy/Eh            Energy/eV
      -------------------------------------------------------------
         1        2.0000           -0.5372991             -14.6207
       ...           ...                  ...                  ...
        16        2.0000           -0.3257819              -8.8650
        17        2.0000           -0.3238034              -8.8111
        18        2.0000           -0.3177632              -8.6468
        19        2.0000           -0.2755943              -7.4993
        20        2.0000           -0.2665532              -7.2533
        21        2.0000           -0.2616052              -7.1186
        22        2.0000           -0.2520185              -6.8578
        23        2.0000           -0.2463871              -6.7045
        24        2.0000           -0.2339766              -6.3668
        25        2.0000           -0.2270606              -6.1786
        26        2.0000           -0.1888833              -5.1398
        27        2.0000           -0.1622232              -4.4143
        28        2.0000           -0.1420271              -3.8648 (HOMO)
        29                         -0.0639621              -1.7405 (LUMO)
        30                         -0.0333545              -0.9076
        31                         -0.0152383              -0.4147
        32                          0.0049869               0.1357
        33                          0.0840313               2.2866
        34                          0.0859635               2.3392
        35                          0.1458492               3.9688
        36                          0.1963942               5.3442
        37                          0.2099536               5.7131
        38                          0.2286564               6.2221
        39                          0.2491308               6.7792
       ...                                ...                  ...
        56                          0.8841206              24.0581
      -------------------------------------------------------------
                  HL-Gap            0.0780650 Eh            2.1243 eV

     #   Z          covCN         q      C6AA      α(0)
     1   6 C        3.769    -0.076    21.985     6.682
     2   6 C        2.975     0.006    27.880     8.661
     3   6 C        3.100    -0.062    29.417     8.888
     4   6 C        3.224    -0.043    28.287     8.644
     5   6 C        3.130     0.071    26.214     8.382
     6   7 N        1.982    -0.291    28.350     7.896
     7   7 N        2.971    -0.038    21.969     6.961
     8   6 C        2.982    -0.016    28.392     8.740
     9   6 C        3.019    -0.083    30.046     8.991
    10   6 C        1.974    -0.233    37.964     9.950
    11  16 S        2.397    -0.328   155.356    20.978
    12   1 H        0.924     0.009     2.900     2.663
    13   1 H        0.924     0.001     3.044     2.728
    14   1 H        0.924     0.007     2.944     2.683
    15   1 H        0.925    -0.035     3.746     3.027
    16   1 H        0.860     0.117     1.647     2.011
    17   1 H        0.926    -0.018     3.386     2.877
    18   1 H        0.927     0.011     2.872     2.650

Wiberg/Mayer (AO) data.
largest (>0.10) Wiberg bond orders for each atom

     #   Z sym  total        # sym  WBO       # sym  WBO       # sym  WBO
 ---------------------------------------------------------------------------
     1   6 C    3.994 --     2 C    1.022    13 H    0.984    12 H    0.980
                            14 H    0.978
     2   6 C    3.934 --     3 C    1.644    11 S    1.092     1 C    1.022
                            10 C    0.109
     3   6 C    3.979 --     2 C    1.644     4 C    1.193    15 H    0.962
     4   6 C    3.955 --    10 C    1.485     3 C    1.193     5 C    1.124
     5   6 C    3.964 --     6 N    1.438     9 C    1.249     4 C    1.124
     6   7 N    2.910 --     5 C    1.438     7 N    1.148     8 C    0.156
     7   7 N    3.551 --     8 C    1.233     6 N    1.148    16 H    0.956
                             9 C    0.102
     8   6 C    3.948 --     9 C    1.570     7 N    1.233    17 H    0.968
                             6 N    0.156
     9   6 C    3.976 --     8 C    1.570     5 C    1.249    18 H    0.975
                             7 N    0.102
    10   6 C    2.977 --     4 C    1.485    11 S    1.222     2 C    0.109
    11  16 S    2.519 --    10 C    1.222     2 C    1.092
    12   1 H    0.999 --     1 C    0.980
    13   1 H    1.000 --     1 C    0.984
    14   1 H    0.999 --     1 C    0.978
    15   1 H    0.999 --     3 C    0.962
    16   1 H    0.986 --     7 N    0.956
    17   1 H    0.999 --     8 C    0.968
    18   1 H    1.000 --     9 C    0.975
 ---------------------------------------------------------------------------

molecular dipole:
                 x           y           z       tot (Debye)
 q only:        1.307       0.766      -1.321
   full:        1.626       1.113      -2.090       7.302

           -------------------------------------------------
          | TOTAL ENERGY              -29.908069270879 Eh   |
          | GRADIENT NORM               0.000656223563 Eh/α |
          | HOMO-LUMO GAP               2.124257027600 eV   |
           -------------------------------------------------

 * finished run on 2022/11/02 at 18:13:41.497
