   * xtb version 6.4.1 (afa7bdf) compiled by 'ehlert@majestix' on 2021-06-10
          program call               : /lustre/hpc/kemi/borup/pKalculator/dep/xtb-6.4.1/bin/xtb --gfn 2 /lustre/hpc/kemi/borup/pKalculator/calc/test#-1=1/conf04/test#-1=1_conf04_gfn2.xyz --opt --lmo --chrg -1 --uhf 0
          number of atoms            :                    18
          number of electrons        :                    56
          charge                     :                    -1
          spin                       :                   0.0

   ID    Z sym.   atoms
    1    6 C      1-5, 8-10
    2    7 N      6, 7
    3   16 S      11
    4    1 H      12-18

          :  Hamiltonian                  GFN2-xTB          :
 * total energy  :   -29.8636876 Eh     change       -0.2367528E-09 Eh
 * total energy  :   -29.8750059 Eh     change       -0.1131828E-01 Eh
 * total energy  :   -29.8782101 Eh     change       -0.3204210E-02 Eh
 * total energy  :   -29.8784167 Eh     change       -0.2065901E-03 Eh
 * total energy  :   -29.8785160 Eh     change       -0.9930589E-04 Eh
 * total energy  :   -29.8785474 Eh     change       -0.3135625E-04 Eh
 * total energy  :   -29.8785784 Eh     change       -0.3099222E-04 Eh
 * total energy  :   -29.8786063 Eh     change       -0.2791650E-04 Eh
 * total energy  :   -29.8786250 Eh     change       -0.1875776E-04 Eh
 * total energy  :   -29.8786525 Eh     change       -0.2747768E-04 Eh
 * total energy  :   -29.8788825 Eh     change       -0.1392300E-04 Eh
 * total energy  :   -29.8788918 Eh     change       -0.9269129E-05 Eh
 * total energy  :   -29.8789094 Eh     change       -0.1757642E-04 Eh
 * total energy  :   -29.8789362 Eh     change       -0.2684486E-04 Eh
 * total energy  :   -29.8789443 Eh     change       -0.8024795E-05 Eh
 * total energy  :   -29.8789498 Eh     change       -0.5544543E-05 Eh
 * total energy  :   -29.8789542 Eh     change       -0.4428754E-05 Eh
 * total energy  :   -29.8789619 Eh     change       -0.7643753E-05 Eh
 * total energy  :   -29.8789646 Eh     change       -0.2684027E-05 Eh
   *** GEOMETRY OPTIMIZATION CONVERGED AFTER 26 ITERATIONS ***

 final structure:
================
18
 xtb: 6.4.1 (afa7bdf)
C        -3.56341899053064   -0.01095236862216   -0.07292090274968
C        -2.15166282551528   -0.41371851341922   -0.33714737527870
C        -1.01042210129757    0.23327270780008   -0.01654883079295
C         0.18781979913530   -0.44439471295833   -0.41288375019032
C         1.51302131093819    0.05489744880783   -0.17401015034068
N         1.65341535071162    1.24081009749200    0.46229337810943
N         2.97844739648175    1.40492699734584    0.52242344010803
C         3.64150922106994    0.34206206660180   -0.06430678814880
C         2.74949302310480   -0.59816537370732   -0.55020318238350
C        -0.10041571602860   -1.62078276454512   -1.04136308417631
S        -1.80700383661645   -1.91753174093695   -1.15792799479856
H        -4.04030520419908   -0.69968496198861    0.62840955910259
H        -3.58583546387818    0.99123358657091    0.35325664456643
H        -4.14855493053254   -0.01607416414305   -0.99424805782664
H        -0.97939141053182    1.18084574527208    0.49360364748064
H         3.35279292576061    2.23720025133738    0.96368987012422
H         4.72711040027977    0.37392059547245   -0.07009871050154
H         0.58340205164826   -2.33786289637954   -1.44620871230374

          :  Hamiltonian                  GFN2-xTB          :
         :: total energy             -29.878964557320 Eh    ::
         :: gradient norm              0.000852184365 Eh/a0 ::
         :: HOMO-LUMO gap              0.344329894860 eV    ::
         :: SCC energy               -30.290864913596 Eh    ::
         :: -> dispersion             -0.018419553495 Eh    ::
         :: repulsion energy           0.411944950967 Eh    ::

    * Orbital Energies and Occupations

         #    Occupation            Energy/Eh            Energy/eV
      -------------------------------------------------------------
         1        2.0000           -0.5816415             -15.8273
       ...           ...                  ...                  ...
        16        2.0000           -0.3260660              -8.8727
        17        2.0000           -0.3205609              -8.7229
        18        2.0000           -0.3163975              -8.6096
        19        2.0000           -0.3090761              -8.4104
        20        2.0000           -0.2988415              -8.1319
        21        2.0000           -0.2760885              -7.5128
        22        2.0000           -0.2507672              -6.8237
        23        2.0000           -0.2379108              -6.4739
        24        2.0000           -0.2254063              -6.1336
        25        2.0000           -0.1927390              -5.2447
        26        2.0000           -0.1806870              -4.9167
        27        2.0000           -0.1566656              -4.2631
        28        1.9974           -0.1023969              -2.7864 (HOMO)
        29        0.0026           -0.0897431              -2.4420 (LUMO)
        30                         -0.0627875              -1.7085
        31                         -0.0369662              -1.0059
        32                          0.0229798               0.6253
        33                          0.0272665               0.7420
        34                          0.1008875               2.7453
        35                          0.1328307               3.6145
        36                          0.1612095               4.3867
        37                          0.1763384               4.7984
        38                          0.1978733               5.3844
        39                          0.2395423               6.5183
       ...                                ...                  ...
        56                          0.8682265              23.6256
      -------------------------------------------------------------
                  HL-Gap            0.0126539 Eh            0.3443 eV

     #   Z          covCN         q      C6AA      α(0)
     1   6 C        3.773    -0.091    22.264     6.723
     2   6 C        2.971     0.017    27.615     8.620
     3   6 C        3.119    -0.056    29.206     8.851
     4   6 C        3.129    -0.004    27.914     8.650
     5   6 C        3.253     0.042    26.020     8.252
     6   7 N        1.954    -0.333    29.461     8.049
     7   7 N        2.949    -0.057    22.340     7.020
     8   6 C        3.071    -0.020    28.425     8.742
     9   6 C        2.001    -0.366    42.737    10.558
    10   6 C        2.943    -0.031    28.771     8.797
    11  16 S        2.294    -0.210   149.997    20.613
    12   1 H        0.924     0.026     2.637     2.540
    13   1 H        0.925     0.026     2.650     2.546
    14   1 H        0.924     0.028     2.621     2.532
    15   1 H        0.926     0.020     2.734     2.586
    16   1 H        0.860     0.072     2.076     2.257
    17   1 H        0.925    -0.088     5.164     3.554
    18   1 H        0.927     0.024     2.668     2.554

Wiberg/Mayer (AO) data.
largest (>0.10) Wiberg bond orders for each atom

     #   Z sym  total        # sym  WBO       # sym  WBO       # sym  WBO
 ---------------------------------------------------------------------------
     1   6 C    3.998 --     2 C    1.027    13 H    0.984    14 H    0.979
                            12 H    0.976
     2   6 C    3.938 --     3 C    1.661    11 S    1.108     1 C    1.027
                            10 C    0.106
     3   6 C    3.985 --     2 C    1.661     4 C    1.179    15 H    0.962
     4   6 C    3.975 --    10 C    1.543     3 C    1.179     5 C    1.109
     5   6 C    3.933 --     6 N    1.364     9 C    1.231     4 C    1.109
                             7 N    0.106
     6   7 N    2.911 --     5 C    1.364     7 N    1.199     8 C    0.202
     7   7 N    3.534 --     6 N    1.199     8 C    1.151    16 H    0.955
                             5 C    0.106
     8   6 C    3.885 --     9 C    1.525     7 N    1.151    17 H    0.961
                             6 N    0.202
     9   6 C    2.988 --     8 C    1.525     5 C    1.231
    10   6 C    3.906 --     4 C    1.543    11 S    1.113    18 H    0.970
                             2 C    0.106
    11  16 S    2.495 --    10 C    1.113     2 C    1.108
    12   1 H    0.999 --     1 C    0.976
    13   1 H    0.999 --     1 C    0.984
    14   1 H    0.999 --     1 C    0.979
    15   1 H    1.000 --     3 C    0.962
    16   1 H    0.994 --     7 N    0.955
    17   1 H    0.992 --     8 C    0.961
    18   1 H    0.999 --    10 C    0.970
 ---------------------------------------------------------------------------

molecular dipole:
                 x           y           z       tot (Debye)
 q only:       -2.845       0.487       0.640
   full:       -2.475       1.368       1.111       7.723

           -------------------------------------------------
          | TOTAL ENERGY              -29.878964557320 Eh   |
          | GRADIENT NORM               0.000852184365 Eh/α |
          | HOMO-LUMO GAP               0.344329894860 eV   |
           -------------------------------------------------

 * finished run on 2022/11/02 at 18:13:38.122
