   * xtb version 6.4.1 (afa7bdf) compiled by 'ehlert@majestix' on 2021-06-10
          program call               : /lustre/hpc/kemi/borup/pKalculator/dep/xtb-6.4.1/bin/xtb --gfn 2 /lustre/hpc/kemi/borup/pKalculator/calc/test#-1=4/conf06/test#-1=4_conf06_gfn2.xyz --opt --lmo --chrg -1 --uhf 0
          number of atoms            :                    18
          number of electrons        :                    56
          charge                     :                    -1
          spin                       :                   0.0

   ID    Z sym.   atoms
    1    6 C      1-5, 8-10
    2    7 N      6, 7
    3   16 S      11
    4    1 H      12-18

          :  Hamiltonian                  GFN2-xTB          :
 * total energy  :   -29.8716355 Eh     change       -0.5577188E-08 Eh
 * total energy  :   -29.8877717 Eh     change       -0.1613626E-01 Eh
 * total energy  :   -29.8916388 Eh     change       -0.3867082E-02 Eh
 * total energy  :   -29.8924976 Eh     change       -0.8588157E-03 Eh
 * total energy  :   -29.8935331 Eh     change       -0.1035418E-02 Eh
 * total energy  :   -29.8944843 Eh     change       -0.9512463E-03 Eh
 * total energy  :   -29.8959646 Eh     change       -0.1480314E-02 Eh
 * total energy  :   -29.8997072 Eh     change       -0.3742579E-02 Eh
 * total energy  :   -29.9002532 Eh     change       -0.5459901E-03 Eh
 * total energy  :   -29.9042175 Eh     change       -0.3964339E-02 Eh
 * total energy  :   -29.9228290 Eh     change       -0.1738892E-03 Eh
 * total energy  :   -29.9229776 Eh     change       -0.1485606E-03 Eh
 * total energy  :   -29.9231261 Eh     change       -0.1485480E-03 Eh
 * total energy  :   -29.9232476 Eh     change       -0.1215029E-03 Eh
 * total energy  :   -29.9233392 Eh     change       -0.9161836E-04 Eh
 * total energy  :   -29.9234183 Eh     change       -0.7905737E-04 Eh
 * total energy  :   -29.9234701 Eh     change       -0.5184344E-04 Eh
 * total energy  :   -29.9234850 Eh     change       -0.1488606E-04 Eh
 * total energy  :   -29.9234880 Eh     change       -0.2980278E-05 Eh
   *** GEOMETRY OPTIMIZATION CONVERGED AFTER 31 ITERATIONS ***

 final structure:
================
18
 xtb: 6.4.1 (afa7bdf)
C        -3.69935348582755   -0.55469612203020    0.69935053683175
C        -2.39466347821192   -0.16777854770157    0.19408192352150
C        -1.31164447677412    0.15068754238365   -0.22322618557744
C        -0.06003619350656    0.54476194683016   -0.74308732388514
C         1.11357613621089    0.10182689276348   -0.04413011783797
N         1.04836805748204   -0.63471427423698    1.06840031768795
N         2.32334909753102   -0.86011548316784    1.44017141903638
C         3.20952600655031   -0.28660521016608    0.59198213407395
C         2.48081856560577    0.34225552401823   -0.37616359295637
C         0.01824982214232    1.32273627715150   -1.87435388378484
S        -1.25514362302293    1.91646956662365   -2.79673618740116
H        -3.96387852266093   -1.55890485138051    0.35624533502394
H        -4.46016980829650    0.14356441073564    0.34408717688539
H        -3.70315538646085   -0.54994115774857    1.79267454853729
H         2.51260430860929   -1.40501727642064    2.26418631905460
H         4.26955724650603   -0.37286715654045    0.74654169787348
H         2.86254467847930    0.89725208385011   -1.20934318711958
H         1.00945205564451    1.59979983503656   -2.23068092996398

          :  Hamiltonian                  GFN2-xTB          :
         :: total energy             -29.923487996444 Eh    ::
         :: gradient norm              0.000642957120 Eh/a0 ::
         :: HOMO-LUMO gap              1.784474577737 eV    ::
         :: SCC energy               -30.415963693410 Eh    ::
         :: -> dispersion             -0.017067375473 Eh    ::
         :: repulsion energy           0.492476182701 Eh    ::

    * Orbital Energies and Occupations

         #    Occupation            Energy/Eh            Energy/eV
      -------------------------------------------------------------
         1        2.0000           -0.5544015             -15.0860
       ...           ...                  ...                  ...
        16        2.0000           -0.3523846              -9.5889
        17        2.0000           -0.3464954              -9.4286
        18        2.0000           -0.3252016              -8.8492
        19        2.0000           -0.2990769              -8.1383
        20        2.0000           -0.2963125              -8.0631
        21        2.0000           -0.2689645              -7.3189
        22        2.0000           -0.2637706              -7.1776
        23        2.0000           -0.2541710              -6.9163
        24        2.0000           -0.2487371              -6.7685
        25        2.0000           -0.2337300              -6.3601
        26        2.0000           -0.2277499              -6.1974
        27        2.0000           -0.1592273              -4.3328
        28        2.0000           -0.1499817              -4.0812 (HOMO)
        29                         -0.0844034              -2.2967 (LUMO)
        30                         -0.0621518              -1.6912
        31                         -0.0065510              -0.1783
        32                          0.0137096               0.3731
        33                          0.0524826               1.4281
        34                          0.0914855               2.4894
        35                          0.1347924               3.6679
        36                          0.2005390               5.4569
        37                          0.2055383               5.5930
        38                          0.2061852               5.6106
        39                          0.2102017               5.7199
       ...                                ...                  ...
        56                          1.5873927              43.1952
      -------------------------------------------------------------
                  HL-Gap            0.0655782 Eh            1.7845 eV

     #   Z          covCN         q      C6AA      α(0)
     1   6 C        3.752    -0.064    21.793     6.657
     2   6 C        1.960    -0.087    33.466     9.342
     3   6 C        1.984    -0.031    31.888     9.119
     4   6 C        2.987    -0.040    28.975     8.830
     5   6 C        3.132     0.070    26.239     8.386
     6   7 N        1.985    -0.280    28.070     7.857
     7   7 N        2.969    -0.030    21.812     6.937
     8   6 C        2.981    -0.014    28.365     8.736
     9   6 C        3.018    -0.083    30.054     8.993
    10   6 C        2.900     0.063    26.579     8.453
    11  16 S        1.017    -0.644   168.690    21.967
    12   1 H        0.924     0.017     2.780     2.607
    13   1 H        0.924     0.025     2.652     2.546
    14   1 H        0.924     0.016     2.797     2.615
    15   1 H        0.860     0.126     1.580     1.969
    16   1 H        0.926    -0.010     3.240     2.815
    17   1 H        0.926    -0.002     3.087     2.747
    18   1 H        0.925    -0.032     3.672     2.997

Wiberg/Mayer (AO) data.
largest (>0.10) Wiberg bond orders for each atom

     #   Z sym  total        # sym  WBO       # sym  WBO       # sym  WBO
 ---------------------------------------------------------------------------
     1   6 C    3.998 --     2 C    1.054    14 H    0.973    13 H    0.972
                            12 H    0.972
     2   6 C    3.969 --     3 C    2.729     1 C    1.054
     3   6 C    3.977 --     2 C    2.729     4 C    1.124
     4   6 C    3.962 --    10 C    1.478     5 C    1.125     3 C    1.124
                            11 S    0.134
     5   6 C    3.970 --     6 N    1.423     9 C    1.248     4 C    1.125
     6   7 N    2.919 --     5 C    1.423     7 N    1.156     8 C    0.155
     7   7 N    3.554 --     8 C    1.241     6 N    1.156    15 H    0.955
                             9 C    0.100
     8   6 C    3.949 --     9 C    1.562     7 N    1.241    16 H    0.969
                             6 N    0.155
     9   6 C    3.973 --     8 C    1.562     5 C    1.248    17 H    0.972
                             7 N    0.100
    10   6 C    3.975 --     4 C    1.478    11 S    1.369    18 H    0.964
    11  16 S    1.677 --    10 C    1.369     4 C    0.134
    12   1 H    0.994 --     1 C    0.972
    13   1 H    0.999 --     1 C    0.972
    14   1 H    0.998 --     1 C    0.973
    15   1 H    0.984 --     7 N    0.955
    16   1 H    0.999 --     8 C    0.969
    17   1 H    1.000 --     9 C    0.972
    18   1 H    0.998 --    10 C    0.964
 ---------------------------------------------------------------------------

molecular dipole:
                 x           y           z       tot (Debye)
 q only:        1.432      -2.261       3.264
   full:        2.136      -2.468       3.584      12.321

           -------------------------------------------------
          | TOTAL ENERGY              -29.923487996444 Eh   |
          | GRADIENT NORM               0.000642957120 Eh/α |
          | HOMO-LUMO GAP               1.784474577737 eV   |
           -------------------------------------------------

 * finished run on 2022/11/02 at 18:13:36.592
