   * xtb version 6.4.1 (afa7bdf) compiled by 'ehlert@majestix' on 2021-06-10
          program call               : /lustre/hpc/kemi/borup/pKalculator/dep/xtb-6.4.1/bin/xtb --gfn 2 /lustre/hpc/kemi/borup/pKalculator/calc/test#-1=1/conf05/test#-1=1_conf05_gfn2.xyz --opt --lmo --chrg -1 --uhf 0
          number of atoms            :                    18
          number of electrons        :                    56
          charge                     :                    -1
          spin                       :                   0.0

   ID    Z sym.   atoms
    1    6 C      1-5, 8-10
    2    7 N      6, 7
    3   16 S      11
    4    1 H      12-18

          :  Hamiltonian                  GFN2-xTB          :
 * total energy  :   -29.8641344 Eh     change       -0.2114575E-10 Eh
 * total energy  :   -29.8758725 Eh     change       -0.1173811E-01 Eh
 * total energy  :   -29.8793206 Eh     change       -0.3448118E-02 Eh
 * total energy  :   -29.8795310 Eh     change       -0.2103700E-03 Eh
 * total energy  :   -29.8796206 Eh     change       -0.8963276E-04 Eh
 * total energy  :   -29.8796305 Eh     change       -0.9846190E-05 Eh
 * total energy  :   -29.8796358 Eh     change       -0.5269490E-05 Eh
 * total energy  :   -29.8796379 Eh     change       -0.2096868E-05 Eh
   *** GEOMETRY OPTIMIZATION CONVERGED AFTER 8 ITERATIONS ***

 final structure:
================
18
 xtb: 6.4.1 (afa7bdf)
C         3.56272850621755   -0.33855579081316   -0.17555135423201
C         2.19570244048751    0.19989617035740    0.09295321523156
C         0.99595976327398   -0.35401659767315   -0.18535930635767
C        -0.12770516839727    0.43343235977597    0.21849735307800
C        -1.47863234106186    0.00142339302195    0.00198128604427
N        -2.51713935930872    0.76944999674376    0.39818846272272
N        -3.58710548144306    0.05361078317085    0.03591992114121
C        -3.21758022216101   -1.13103289400115   -0.57098762506395
C        -1.83912153617296   -1.24908543338246   -0.63616558034635
C         0.27317253517382    1.59676437484754    0.80966644668698
S         2.00208873201431    1.74788283788550    0.88261234786406
H         4.31766703337600    0.40747427305864    0.06508853069374
H         3.75254139044418   -1.22941485982840    0.42704630910106
H         3.66541434578808   -0.61590773765678   -1.22571411700942
H         0.85624274165184   -1.30466990316230   -0.67032255053323
H        -4.51265776742769    0.42001934342296    0.22631208215180
H        -4.01116043593531   -1.79214756315919   -0.90622486394459
H        -0.33041517651929    2.38487524739197    1.21206044277171

          :  Hamiltonian                  GFN2-xTB          :
         :: total energy             -29.879637850733 Eh    ::
         :: gradient norm              0.000490009184 Eh/a0 ::
         :: HOMO-LUMO gap              0.467806773906 eV    ::
         :: SCC energy               -30.291953275085 Eh    ::
         :: -> dispersion             -0.018409965098 Eh    ::
         :: repulsion energy           0.412359875020 Eh    ::

    * Orbital Energies and Occupations

         #    Occupation            Energy/Eh            Energy/eV
      -------------------------------------------------------------
         1        2.0000           -0.5801907             -15.7878
       ...           ...                  ...                  ...
        16        2.0000           -0.3266462              -8.8885
        17        2.0000           -0.3182474              -8.6600
        18        2.0000           -0.3160465              -8.6001
        19        2.0000           -0.3071430              -8.3578
        20        2.0000           -0.3000159              -8.1638
        21        2.0000           -0.2744559              -7.4683
        22        2.0000           -0.2501847              -6.8079
        23        2.0000           -0.2357670              -6.4155
        24        2.0000           -0.2272562              -6.1840
        25        2.0000           -0.1933361              -5.2609
        26        2.0000           -0.1818354              -4.9480
        27        2.0000           -0.1588369              -4.3222
        28        1.9998           -0.1059898              -2.8841 (HOMO)
        29        0.0002           -0.0887983              -2.4163 (LUMO)
        30                         -0.0632002              -1.7198
        31                         -0.0364055              -0.9906
        32                          0.0246125               0.6697
        33                          0.0258948               0.7046
        34                          0.0992654               2.7011
        35                          0.1338030               3.6410
        36                          0.1651817               4.4948
        37                          0.1779478               4.8422
        38                          0.1957594               5.3269
        39                          0.2512404               6.8366
       ...                                ...                  ...
        56                          0.8670646              23.5940
      -------------------------------------------------------------
                  HL-Gap            0.0171916 Eh            0.4678 eV

     #   Z          covCN         q      C6AA      α(0)
     1   6 C        3.773    -0.092    22.293     6.728
     2   6 C        2.972     0.019    27.582     8.615
     3   6 C        3.118    -0.058    29.260     8.860
     4   6 C        3.129    -0.003    27.904     8.649
     5   6 C        3.252     0.043    26.014     8.254
     6   7 N        1.952    -0.336    29.553     8.061
     7   7 N        2.951    -0.053    22.264     7.008
     8   6 C        3.067    -0.021    28.449     8.746
     9   6 C        2.002    -0.361    42.539    10.533
    10   6 C        2.941    -0.032    28.786     8.799
    11  16 S        2.292    -0.220   150.465    20.645
    12   1 H        0.925     0.031     2.570     2.507
    13   1 H        0.924     0.025     2.652     2.547
    14   1 H        0.924     0.026     2.643     2.542
    15   1 H        0.926     0.037     2.491     2.468
    16   1 H        0.860     0.074     2.060     2.248
    17   1 H        0.925    -0.087     5.129     3.542
    18   1 H        0.926     0.009     2.909     2.667

Wiberg/Mayer (AO) data.
largest (>0.10) Wiberg bond orders for each atom

     #   Z sym  total        # sym  WBO       # sym  WBO       # sym  WBO
 ---------------------------------------------------------------------------
     1   6 C    3.998 --     2 C    1.025    12 H    0.987    14 H    0.978
                            13 H    0.975
     2   6 C    3.939 --     3 C    1.663    11 S    1.105     1 C    1.025
                            10 C    0.107
     3   6 C    3.987 --     2 C    1.663     4 C    1.185    15 H    0.959
     4   6 C    3.977 --    10 C    1.537     3 C    1.185     5 C    1.109
     5   6 C    3.935 --     6 N    1.370     9 C    1.224     4 C    1.109
                             7 N    0.104
     6   7 N    2.911 --     5 C    1.370     7 N    1.199     8 C    0.203
     7   7 N    3.536 --     6 N    1.199     8 C    1.157    16 H    0.955
                             5 C    0.104
     8   6 C    3.884 --     9 C    1.519     7 N    1.157    17 H    0.961
                             6 N    0.203
     9   6 C    2.999 --     8 C    1.519     5 C    1.224
    10   6 C    3.905 --     4 C    1.537    11 S    1.111    18 H    0.972
                             2 C    0.107
    11  16 S    2.509 --    10 C    1.111     2 C    1.105
    12   1 H    0.999 --     1 C    0.987
    13   1 H    0.999 --     1 C    0.975
    14   1 H    0.999 --     1 C    0.978
    15   1 H    0.999 --     3 C    0.959
    16   1 H    0.994 --     7 N    0.955
    17   1 H    0.992 --     8 C    0.961
    18   1 H    1.000 --    10 C    0.972
 ---------------------------------------------------------------------------

molecular dipole:
                 x           y           z       tot (Debye)
 q only:        2.420      -0.081      -0.045
   full:        1.570      -0.009       0.000       3.989

           -------------------------------------------------
          | TOTAL ENERGY              -29.879637850733 Eh   |
          | GRADIENT NORM               0.000490009184 Eh/α |
          | HOMO-LUMO GAP               0.467806773906 eV   |
           -------------------------------------------------

 * finished run on 2022/11/02 at 18:13:37.648
