   * xtb version 6.4.1 (afa7bdf) compiled by 'ehlert@majestix' on 2021-06-10
          program call               : /lustre/hpc/kemi/borup/pKalculator/dep/xtb-6.4.1/bin/xtb --gfn 2 /lustre/hpc/kemi/borup/pKalculator/calc/test#-1=8/conf01/test#-1=8_conf01_gfn2.xyz --opt --lmo --chrg -1 --uhf 0
          number of atoms            :                    18
          number of electrons        :                    56
          charge                     :                    -1
          spin                       :                   0.0

   ID    Z sym.   atoms
    1    6 C      1-5, 8-10
    2    7 N      6, 7
    3   16 S      11
    4    1 H      12-18

          :  Hamiltonian                  GFN2-xTB          :
 * total energy  :   -29.9185343 Eh     change       -0.1266329E-09 Eh
 * total energy  :   -29.9234413 Eh     change       -0.4906960E-02 Eh
 * total energy  :   -29.9246570 Eh     change       -0.1215720E-02 Eh
 * total energy  :   -29.9247600 Eh     change       -0.1029749E-03 Eh
 * total energy  :   -29.9248035 Eh     change       -0.4351521E-04 Eh
 * total energy  :   -29.9248079 Eh     change       -0.4449069E-05 Eh
   *** GEOMETRY OPTIMIZATION CONVERGED AFTER 6 ITERATIONS ***

 final structure:
================
18
 xtb: 6.4.1 (afa7bdf)
C         3.77023666985907   -0.94041949958294   -0.06090007634250
C         2.59736341529708   -0.27825445220264    0.11272707999621
C         1.27348516884837   -0.68094668624361   -0.13712221822295
C         0.30119068274149    0.28034299021354    0.16882881786376
C        -1.11639617785782    0.07475296955027   -0.01079595955986
N        -1.63132975131768   -1.03675089282650   -0.52445636555364
N        -2.96183161689055   -0.86274088869747   -0.53422288360755
C        -3.32115741811541    0.34424174227337   -0.03506999439588
C        -2.16373527571112    0.98130279714842    0.31454548514101
C         0.81367260609441    1.45990858889449    0.66775085853631
S         2.56163194743452    1.38953098519789    0.75718237936630
H         4.72145548478363   -0.49665392327158    0.17814550409582
H         3.77272464556435   -1.94622623561643   -0.45022878471461
H         1.03649432968557   -1.65490446242725   -0.52912618481283
H        -3.55871693043074   -1.59176372393953   -0.88854843830262
H        -4.35211094573535    0.64036994719642    0.02750539423794
H        -2.06258996592525    1.95683481226408    0.74481546698699
H         0.31961513167542    2.36137293206954    0.97042291928807

          :  Hamiltonian                  GFN2-xTB          :
         :: total energy             -29.924807948901 Eh    ::
         :: gradient norm              0.000686076344 Eh/a0 ::
         :: HOMO-LUMO gap              0.596212992866 eV    ::
         :: SCC energy               -30.369436338030 Eh    ::
         :: -> dispersion             -0.018999758499 Eh    ::
         :: repulsion energy           0.444674092924 Eh    ::

    * Orbital Energies and Occupations

         #    Occupation            Energy/Eh            Energy/eV
      -------------------------------------------------------------
         1        2.0000           -0.5613865             -15.2761
       ...           ...                  ...                  ...
        16        2.0000           -0.3229847              -8.7889
        17        2.0000           -0.2965139              -8.0686
        18        2.0000           -0.2958396              -8.0502
        19        2.0000           -0.2751267              -7.4866
        20        2.0000           -0.2711900              -7.3795
        21        2.0000           -0.2659043              -7.2356
        22        2.0000           -0.2619814              -7.1289
        23        2.0000           -0.2608034              -7.0968
        24        2.0000           -0.2489379              -6.7739
        25        2.0000           -0.2414970              -6.5715
        26        2.0000           -0.2077167              -5.6523
        27        2.0000           -0.1949750              -5.3055
        28        2.0000           -0.1092584              -2.9731 (HOMO)
        29        0.0000           -0.0873479              -2.3769 (LUMO)
        30                         -0.0500783              -1.3627
        31                         -0.0154924              -0.4216
        32                          0.0136006               0.3701
        33                          0.0659146               1.7936
        34                          0.0759048               2.0655
        35                          0.1302809               3.5451
        36                          0.1831977               4.9851
        37                          0.2152696               5.8578
        38                          0.2213943               6.0244
        39                          0.2343158               6.3761
       ...                                ...                  ...
        56                          0.8857976              24.1038
      -------------------------------------------------------------
                  HL-Gap            0.0219104 Eh            0.5962 eV

     #   Z          covCN         q      C6AA      α(0)
     1   6 C        2.875    -0.191    33.030     9.421
     2   6 C        2.960     0.049    26.904     8.508
     3   6 C        3.071    -0.125    31.098     9.144
     4   6 C        3.122    -0.026    28.470     8.738
     5   6 C        3.135     0.072    26.179     8.375
     6   7 N        1.990    -0.256    27.472     7.773
     7   7 N        2.980    -0.024    21.714     6.921
     8   6 C        2.987    -0.016    28.399     8.742
     9   6 C        3.025    -0.081    29.987     8.982
    10   6 C        2.926    -0.063    29.574     8.918
    11  16 S        2.275    -0.308   154.408    20.914
    12   1 H        0.926    -0.043     3.913     3.093
    13   1 H        0.926    -0.047     4.015     3.133
    14   1 H        0.926    -0.029     3.615     2.973
    15   1 H        0.860     0.130     1.549     1.950
    16   1 H        0.926    -0.007     3.180     2.789
    17   1 H        0.926     0.003     3.006     2.711
    18   1 H        0.926    -0.037     3.797     3.047

Wiberg/Mayer (AO) data.
largest (>0.10) Wiberg bond orders for each atom

     #   Z sym  total        # sym  WBO       # sym  WBO       # sym  WBO
 ---------------------------------------------------------------------------
     1   6 C    3.863 --     2 C    1.571    12 H    0.980    13 H    0.972
                             3 C    0.111
     2   6 C    3.931 --     1 C    1.571     3 C    1.285    11 S    1.004
     3   6 C    3.921 --     4 C    1.314     2 C    1.285    14 H    0.965
                            10 C    0.149     1 C    0.111
     4   6 C    3.976 --    10 C    1.433     3 C    1.314     5 C    1.088
     5   6 C    3.967 --     6 N    1.461     9 C    1.269     4 C    1.088
     6   7 N    2.938 --     5 C    1.461     7 N    1.172     8 C    0.161
     7   7 N    3.574 --     8 C    1.243     6 N    1.172    15 H    0.953
     8   6 C    3.949 --     9 C    1.555     7 N    1.243    16 H    0.969
                             6 N    0.161
     9   6 C    3.973 --     8 C    1.555     5 C    1.269    17 H    0.974
    10   6 C    3.860 --     4 C    1.433    11 S    1.075    18 H    0.971
                             3 C    0.149
    11  16 S    2.354 --    10 C    1.075     2 C    1.004
    12   1 H    0.998 --     1 C    0.980
    13   1 H    0.997 --     1 C    0.972
    14   1 H    0.999 --     3 C    0.965
    15   1 H    0.983 --     7 N    0.953
    16   1 H    0.999 --     8 C    0.969
    17   1 H    1.000 --     9 C    0.974
    18   1 H    0.998 --    10 C    0.971
 ---------------------------------------------------------------------------

molecular dipole:
                 x           y           z       tot (Debye)
 q only:       -3.440      -0.380      -0.461
   full:       -4.202      -0.431      -0.526      10.820

           -------------------------------------------------
          | TOTAL ENERGY              -29.924807948901 Eh   |
          | GRADIENT NORM               0.000686076344 Eh/α |
          | HOMO-LUMO GAP               0.596212992866 eV   |
           -------------------------------------------------

 * finished run on 2022/11/02 at 18:13:42.630
