   * xtb version 6.4.1 (afa7bdf) compiled by 'ehlert@majestix' on 2021-06-10
          program call               : /lustre/hpc/kemi/borup/pKalculator/dep/xtb-6.4.1/bin/xtb --gfn 2 /lustre/hpc/kemi/borup/pKalculator/calc/test#-1=11/conf07/test#-1=11_conf07_gfn2.xyz --opt --lmo --chrg -1 --uhf 0
          number of atoms            :                    18
          number of electrons        :                    56
          charge                     :                    -1
          spin                       :                   0.0

   ID    Z sym.   atoms
    1    6 C      1-5, 8-10
    2    7 N      6, 7
    3   16 S      11
    4    1 H      12-18

          :  Hamiltonian                  GFN2-xTB          :
 * total energy  :   -29.8885949 Eh     change       -0.2285560E-08 Eh
 * total energy  :   -29.8970829 Eh     change       -0.8488023E-02 Eh
 * total energy  :   -29.8989860 Eh     change       -0.1903141E-02 Eh
 * total energy  :   -29.8991820 Eh     change       -0.1959415E-03 Eh
 * total energy  :   -29.8992795 Eh     change       -0.9753307E-04 Eh
 * total energy  :   -29.8993036 Eh     change       -0.2408391E-04 Eh
 * total energy  :   -29.8993183 Eh     change       -0.1475155E-04 Eh
 * total energy  :   -29.8993287 Eh     change       -0.1033993E-04 Eh
 * total energy  :   -29.8993344 Eh     change       -0.5689824E-05 Eh
 * total energy  :   -29.8993411 Eh     change       -0.6690772E-05 Eh
 * total energy  :   -29.8998018 Eh     change       -0.1129773E-03 Eh
 * total energy  :   -29.8998132 Eh     change       -0.1135083E-04 Eh
 * total energy  :   -29.8998048 Eh     change        0.8347240E-05 Eh
 * total energy  :   -29.8998304 Eh     change       -0.2555856E-04 Eh
 * total energy  :   -29.8998355 Eh     change       -0.5172294E-05 Eh
 * total energy  :   -29.8998443 Eh     change       -0.8721379E-05 Eh
 * total energy  :   -29.8998414 Eh     change        0.2901715E-05 Eh
 * total energy  :   -29.8998545 Eh     change       -0.1312258E-04 Eh
 * total energy  :   -29.8998570 Eh     change       -0.2514599E-05 Eh
   *** GEOMETRY OPTIMIZATION CONVERGED AFTER 38 ITERATIONS ***

 final structure:
================
18
 xtb: 6.4.1 (afa7bdf)
C         3.39013119106791   -0.33833001983587    0.59848087040339
C         2.05557515313683   -0.32364933803503   -0.06598745276930
C         0.85449062120131    0.00982599350747    0.45709836159521
C        -0.23837321683353   -0.09154227088071   -0.46070717567672
C        -1.60675901436530    0.20613467791371   -0.13457726239009
N        -2.58310780994270    0.10132701150088   -1.05279645391104
N        -3.68900693411216    0.45938378188162   -0.35146791118252
C        -3.53685848770474    0.79540960333120    0.96569535230627
C        -2.14239466981073    0.62387465194152    1.10147141109469
C         0.19106825902496   -0.51102616089333   -1.68519289666308
S         1.90429494417439   -0.78710499103970   -1.74163136327127
H         3.29678625029820    0.02452751055581    1.62073082239298
H         3.80086625569985   -1.34988503998211    0.62244105710620
H         4.09782453247274    0.29621327692630    0.06255413747761
H         0.73131495139588    0.32576905438331    1.47937944005135
H        -4.56678945865680    0.45401748129561   -0.85429078067374
H        -1.56492057596924    0.78304464840585    2.00485840666941
H        -0.39414399107684   -0.67798787097651   -2.56606056255926

          :  Hamiltonian                  GFN2-xTB          :
         :: total energy             -29.899856994237 Eh    ::
         :: gradient norm              0.000469209579 Eh/a0 ::
         :: HOMO-LUMO gap              0.553970125046 eV    ::
         :: SCC energy               -30.314984754533 Eh    ::
         :: -> dispersion             -0.018641329679 Eh    ::
         :: repulsion energy           0.415150095335 Eh    ::

    * Orbital Energies and Occupations

         #    Occupation            Energy/Eh            Energy/eV
      -------------------------------------------------------------
         1        2.0000           -0.5925151             -16.1232
       ...           ...                  ...                  ...
        16        2.0000           -0.3309153              -9.0047
        17        2.0000           -0.3211287              -8.7384
        18        2.0000           -0.3177929              -8.6476
        19        2.0000           -0.3043302              -8.2812
        20        2.0000           -0.2928180              -7.9680
        21        2.0000           -0.2746751              -7.4743
        22        2.0000           -0.2611865              -7.1072
        23        2.0000           -0.2487909              -6.7699
        24        2.0000           -0.2448262              -6.6621
        25        2.0000           -0.1890371              -5.1440
        26        2.0000           -0.1850672              -5.0359
        27        2.0000           -0.1578693              -4.2958
        28        2.0000           -0.1224891              -3.3331 (HOMO)
        29        0.0000           -0.1021310              -2.7791 (LUMO)
        30                         -0.0729061              -1.9839
        31                         -0.0419934              -1.1427
        32                          0.0125403               0.3412
        33                          0.0332128               0.9038
        34                          0.0877657               2.3882
        35                          0.1225377               3.3344
        36                          0.1510819               4.1111
        37                          0.1653709               4.5000
        38                          0.2118945               5.7659
        39                          0.2374205               6.4605
       ...                                ...                  ...
        56                          0.8686847              23.6381
      -------------------------------------------------------------
                  HL-Gap            0.0203580 Eh            0.5540 eV

     #   Z          covCN         q      C6AA      α(0)
     1   6 C        3.774    -0.091    22.274     6.725
     2   6 C        2.973     0.019    27.589     8.616
     3   6 C        3.119    -0.056    29.219     8.853
     4   6 C        3.126    -0.007    27.991     8.663
     5   6 C        3.104     0.036    27.052     8.522
     6   7 N        1.949    -0.358    30.161     8.144
     7   7 N        3.068    -0.030    21.816     6.937
     8   6 C        1.960    -0.307    40.559    10.285
     9   6 C        3.073    -0.084    30.013     8.982
    10   6 C        2.945    -0.027    28.685     8.784
    11  16 S        2.291    -0.201   149.619    20.587
    12   1 H        0.925     0.028     2.618     2.530
    13   1 H        0.924     0.029     2.597     2.520
    14   1 H        0.924     0.030     2.590     2.517
    15   1 H        0.926     0.014     2.818     2.625
    16   1 H        0.860     0.073     2.064     2.250
    17   1 H        0.925    -0.088     5.154     3.550
    18   1 H        0.927     0.020     2.730     2.584

Wiberg/Mayer (AO) data.
largest (>0.10) Wiberg bond orders for each atom

     #   Z sym  total        # sym  WBO       # sym  WBO       # sym  WBO
 ---------------------------------------------------------------------------
     1   6 C    3.998 --     2 C    1.029    12 H    0.983    14 H    0.977
                            13 H    0.976
     2   6 C    3.940 --     3 C    1.653    11 S    1.114     1 C    1.029
                            10 C    0.109
     3   6 C    3.985 --     2 C    1.653     4 C    1.187    15 H    0.962
     4   6 C    3.977 --    10 C    1.550     3 C    1.187     5 C    1.094
     5   6 C    3.958 --     6 N    1.371     9 C    1.319     4 C    1.094
     6   7 N    2.910 --     5 C    1.371     7 N    1.158     8 C    0.187
                             9 C    0.120
     7   7 N    3.549 --     8 C    1.273     6 N    1.158    16 H    0.964
     8   6 C    2.933 --     9 C    1.434     7 N    1.273     6 N    0.187
     9   6 C    3.949 --     8 C    1.434     5 C    1.319    17 H    0.966
                             6 N    0.120
    10   6 C    3.912 --     4 C    1.550    11 S    1.113    18 H    0.971
                             2 C    0.109
    11  16 S    2.504 --     2 C    1.114    10 C    1.113
    12   1 H    0.999 --     1 C    0.983
    13   1 H    0.999 --     1 C    0.976
    14   1 H    0.999 --     1 C    0.977
    15   1 H    1.000 --     3 C    0.962
    16   1 H    0.994 --     7 N    0.964
    17   1 H    0.992 --     9 C    0.966
    18   1 H    0.999 --    10 C    0.971
 ---------------------------------------------------------------------------

molecular dipole:
                 x           y           z       tot (Debye)
 q only:        3.149      -0.408       0.205
   full:        3.460      -0.439       0.260       8.889

           -------------------------------------------------
          | TOTAL ENERGY              -29.899856994237 Eh   |
          | GRADIENT NORM               0.000469209579 Eh/α |
          | HOMO-LUMO GAP               0.553970125046 eV   |
           -------------------------------------------------

 * finished run on 2022/11/02 at 18:13:40.028
