   * xtb version 6.4.1 (afa7bdf) compiled by 'ehlert@majestix' on 2021-06-10
          program call               : /lustre/hpc/kemi/borup/pKalculator/dep/xtb-6.4.1/bin/xtb --gfn 2 /lustre/hpc/kemi/borup/pKalculator/calc/test#-1=4/conf05/test#-1=4_conf05_gfn2.xyz --opt --lmo --chrg -1 --uhf 0
          number of atoms            :                    18
          number of electrons        :                    56
          charge                     :                    -1
          spin                       :                   0.0

   ID    Z sym.   atoms
    1    6 C      1-5, 8-10
    2    7 N      6, 7
    3   16 S      11
    4    1 H      12-18

          :  Hamiltonian                  GFN2-xTB          :
 * total energy  :   -29.8761997 Eh     change       -0.4628653E-09 Eh
 * total energy  :   -29.8923889 Eh     change       -0.1618920E-01 Eh
 * total energy  :   -29.8959099 Eh     change       -0.3520968E-02 Eh
 * total energy  :   -29.8966077 Eh     change       -0.6977901E-03 Eh
 * total energy  :   -29.8973815 Eh     change       -0.7738624E-03 Eh
 * total energy  :   -29.8979422 Eh     change       -0.5606560E-03 Eh
 * total energy  :   -29.8986000 Eh     change       -0.6578267E-03 Eh
 * total energy  :   -29.8996383 Eh     change       -0.1038312E-02 Eh
 * total energy  :   -29.9025251 Eh     change       -0.2886735E-02 Eh
 * total energy  :   -29.9028353 Eh     change       -0.3101969E-03 Eh
 * total energy  :   -29.9242463 Eh     change       -0.4072116E-03 Eh
 * total energy  :   -29.9245672 Eh     change       -0.3209233E-03 Eh
 * total energy  :   -29.9248086 Eh     change       -0.2413846E-03 Eh
 * total energy  :   -29.9249814 Eh     change       -0.1728628E-03 Eh
 * total energy  :   -29.9250850 Eh     change       -0.1035443E-03 Eh
 * total energy  :   -29.9251362 Eh     change       -0.5126000E-04 Eh
 * total energy  :   -29.9251524 Eh     change       -0.1620393E-04 Eh
 * total energy  :   -29.9251541 Eh     change       -0.1704938E-05 Eh
 * total energy  :   -29.9251556 Eh     change       -0.1411757E-05 Eh
   *** GEOMETRY OPTIMIZATION CONVERGED AFTER 33 ITERATIONS ***

 final structure:
================
18
 xtb: 6.4.1 (afa7bdf)
C        -3.60042862709707    0.52098291093680   -0.04986384375571
C        -2.26119643980755   -0.03916127215795   -0.01091308200568
C        -1.15369311372119   -0.51201190303518    0.02302480511093
C         0.14190960663176   -1.06754820528453    0.06543830004040
C         1.24006209997617   -0.16807748943739   -0.14469736031154
N         2.52580244812871   -0.52833922255319   -0.13412133868351
N         3.22528654238031    0.60019708782800   -0.36882459218905
C         2.41962123045773    1.67718810675345   -0.52982043759631
C         1.13591040708545    1.23294815249024   -0.39454299722479
C         0.34483301640450   -2.40887157163526    0.29673614391501
S        -0.82205403053659   -3.58599185813470    0.56031623204544
H        -4.10880367350218    0.24016587125603   -0.97652132051317
H        -3.56026046520403    1.61259818089909    0.00666295859707
H        -4.19046822806700    0.15075722885426    0.79184915497134
H         4.22995497518732    0.56349230235555   -0.40453374779786
H         2.82433206136712    2.65376818967136   -0.72429742549380
H         0.22870856878772    1.79959676778807   -0.45913491267043
H         1.38048562152930   -2.74169227659454    0.31050546356159

          :  Hamiltonian                  GFN2-xTB          :
         :: total energy             -29.925155562925 Eh    ::
         :: gradient norm              0.000259671875 Eh/a0 ::
         :: HOMO-LUMO gap              1.741696845177 eV    ::
         :: SCC energy               -30.417191278906 Eh    ::
         :: -> dispersion             -0.017126740872 Eh    ::
         :: repulsion energy           0.492027931549 Eh    ::

    * Orbital Energies and Occupations

         #    Occupation            Energy/Eh            Energy/eV
      -------------------------------------------------------------
         1        2.0000           -0.5533252             -15.0567
       ...           ...                  ...                  ...
        16        2.0000           -0.3492282              -9.5030
        17        2.0000           -0.3417009              -9.2982
        18        2.0000           -0.3251558              -8.8479
        19        2.0000           -0.2991854              -8.1412
        20        2.0000           -0.2980754              -8.1110
        21        2.0000           -0.2680656              -7.2944
        22        2.0000           -0.2612895              -7.1100
        23        2.0000           -0.2560721              -6.9681
        24        2.0000           -0.2487814              -6.7697
        25        2.0000           -0.2385213              -6.4905
        26        2.0000           -0.2277012              -6.1961
        27        2.0000           -0.1590116              -4.3269
        28        2.0000           -0.1487062              -4.0465 (HOMO)
        29                         -0.0847000              -2.3048 (LUMO)
        30                         -0.0596347              -1.6227
        31                         -0.0085943              -0.2339
        32                          0.0078759               0.2143
        33                          0.0545105               1.4833
        34                          0.0901242               2.4524
        35                          0.1338280               3.6416
        36                          0.2037223               5.5436
        37                          0.2061149               5.6087
        38                          0.2072655               5.6400
        39                          0.2114466               5.7538
       ...                                ...                  ...
        56                          1.5772061              42.9180
      -------------------------------------------------------------
                  HL-Gap            0.0640062 Eh            1.7417 eV

     #   Z          covCN         q      C6AA      α(0)
     1   6 C        3.752    -0.063    21.767     6.653
     2   6 C        1.960    -0.095    33.697     9.374
     3   6 C        1.984    -0.039    32.109     9.151
     4   6 C        2.987    -0.043    29.068     8.844
     5   6 C        3.137     0.070    26.222     8.381
     6   7 N        1.981    -0.284    28.178     7.872
     7   7 N        2.972    -0.029    21.809     6.936
     8   6 C        2.980    -0.014    28.366     8.736
     9   6 C        3.019    -0.084    30.088     8.998
    10   6 C        2.899     0.068    26.488     8.439
    11  16 S        1.018    -0.637   168.333    21.944
    12   1 H        0.924     0.018     2.763     2.599
    13   1 H        0.924     0.012     2.858     2.644
    14   1 H        0.924     0.022     2.698     2.569
    15   1 H        0.860     0.126     1.579     1.968
    16   1 H        0.926    -0.011     3.255     2.821
    17   1 H        0.926     0.000     3.055     2.733
    18   1 H        0.925    -0.014     3.317     2.848

Wiberg/Mayer (AO) data.
largest (>0.10) Wiberg bond orders for each atom

     #   Z sym  total        # sym  WBO       # sym  WBO       # sym  WBO
 ---------------------------------------------------------------------------
     1   6 C    3.997 --     2 C    1.053    13 H    0.973    14 H    0.972
                            12 H    0.972
     2   6 C    3.965 --     3 C    2.720     1 C    1.053
     3   6 C    3.977 --     2 C    2.720     4 C    1.130
     4   6 C    3.959 --    10 C    1.466     3 C    1.130     5 C    1.126
                            11 S    0.129
     5   6 C    3.971 --     6 N    1.422     9 C    1.248     4 C    1.126
     6   7 N    2.915 --     5 C    1.422     7 N    1.153     8 C    0.155
     7   7 N    3.551 --     8 C    1.242     6 N    1.153    15 H    0.955
                             9 C    0.101
     8   6 C    3.949 --     9 C    1.562     7 N    1.242    16 H    0.968
                             6 N    0.155
     9   6 C    3.974 --     8 C    1.562     5 C    1.248    17 H    0.974
                             7 N    0.101
    10   6 C    3.975 --     4 C    1.466    11 S    1.383    18 H    0.966
    11  16 S    1.690 --    10 C    1.383     4 C    0.129
    12   1 H    0.996 --     1 C    0.972
    13   1 H    0.999 --     1 C    0.973
    14   1 H    0.999 --     1 C    0.972
    15   1 H    0.983 --     7 N    0.955
    16   1 H    0.999 --     8 C    0.968
    17   1 H    1.000 --     9 C    0.974
    18   1 H    0.999 --    10 C    0.966
 ---------------------------------------------------------------------------

molecular dipole:
                 x           y           z       tot (Debye)
 q only:        0.833       4.270      -0.574
   full:        1.116       5.138      -0.743      13.497

           -------------------------------------------------
          | TOTAL ENERGY              -29.925155562925 Eh   |
          | GRADIENT NORM               0.000259671875 Eh/α |
          | HOMO-LUMO GAP               1.741696845177 eV   |
           -------------------------------------------------

 * finished run on 2022/11/02 at 18:13:36.642
