   * xtb version 6.4.1 (afa7bdf) compiled by 'ehlert@majestix' on 2021-06-10
          program call               : /lustre/hpc/kemi/borup/pKalculator/dep/xtb-6.4.1/bin/xtb --gfn 2 /lustre/hpc/kemi/borup/pKalculator/calc/test#-1=1/conf06/test#-1=1_conf06_gfn2.xyz --opt --lmo --chrg -1 --uhf 0
          number of atoms            :                    18
          number of electrons        :                    56
          charge                     :                    -1
          spin                       :                   0.0

   ID    Z sym.   atoms
    1    6 C      1-5, 8-10
    2    7 N      6, 7
    3   16 S      11
    4    1 H      12-18

          :  Hamiltonian                  GFN2-xTB          :
 * total energy  :   -29.8634619 Eh     change       -0.1407692E-09 Eh
 * total energy  :   -29.8747799 Eh     change       -0.1131804E-01 Eh
 * total energy  :   -29.8780225 Eh     change       -0.3242606E-02 Eh
 * total energy  :   -29.8782298 Eh     change       -0.2072982E-03 Eh
 * total energy  :   -29.8783190 Eh     change       -0.8916015E-04 Eh
 * total energy  :   -29.8783393 Eh     change       -0.2026596E-04 Eh
 * total energy  :   -29.8783523 Eh     change       -0.1304075E-04 Eh
 * total energy  :   -29.8783585 Eh     change       -0.6205238E-05 Eh
 * total energy  :   -29.8783612 Eh     change       -0.2725540E-05 Eh
   *** GEOMETRY OPTIMIZATION CONVERGED AFTER 9 ITERATIONS ***

 final structure:
================
18
 xtb: 6.4.1 (afa7bdf)
C        -3.55152435420518   -0.14179269605133   -0.31579673256057
C        -2.18228632994947    0.27200346835595    0.11593923776239
C        -0.98658836700029   -0.25144185520088   -0.23654349536820
C         0.14170788724882    0.39129003549165    0.36548268915242
C         1.50921689910756    0.01252551434085    0.14455532838840
N         1.77523657971076   -1.01496182307605   -0.69448788065792
N         3.10915105095546   -1.09743132537997   -0.66963126594713
C         3.65420132446138   -0.14075583662413    0.16785102300068
C         2.66744655540704    0.63746966010749    0.74834621168217
C        -0.25348411373893    1.41382223375310    1.17977691679364
S        -1.97600280145756    1.60467365249516    1.22439271771525
H        -3.66783998738707   -0.02723118208007   -1.39547862458635
H        -4.30365136071357    0.46857980234528    0.17987279555108
H        -3.73411964346171   -1.18921824211924   -0.06817592583805
H        -0.87067969958599   -1.08227766638120   -0.91138453676973
H         3.57013795142692   -1.80633524295992   -1.22843025668447
H         4.73590485163598   -0.11812441085266    0.26318015008377
H         0.36317355754582    2.06920591383589    1.75924664828253

          :  Hamiltonian                  GFN2-xTB          :
         :: total energy             -29.878361241409 Eh    ::
         :: gradient norm              0.000524033673 Eh/a0 ::
         :: HOMO-LUMO gap              0.341077827599 eV    ::
         :: SCC energy               -30.290088272838 Eh    ::
         :: -> dispersion             -0.018416817211 Eh    ::
         :: repulsion energy           0.411772434294 Eh    ::

    * Orbital Energies and Occupations

         #    Occupation            Energy/Eh            Energy/eV
      -------------------------------------------------------------
         1        2.0000           -0.5820861             -15.8394
       ...           ...                  ...                  ...
        16        2.0000           -0.3259806              -8.8704
        17        2.0000           -0.3204508              -8.7199
        18        2.0000           -0.3165013              -8.6124
        19        2.0000           -0.3084809              -8.3942
        20        2.0000           -0.2987750              -8.1301
        21        2.0000           -0.2759032              -7.5077
        22        2.0000           -0.2511083              -6.8330
        23        2.0000           -0.2371459              -6.4531
        24        2.0000           -0.2251809              -6.1275
        25        2.0000           -0.1924856              -5.2378
        26        2.0000           -0.1805971              -4.9143
        27        2.0000           -0.1564635              -4.2576
        28        1.9973           -0.1022481              -2.7823 (HOMO)
        29        0.0027           -0.0897137              -2.4412 (LUMO)
        30                         -0.0639264              -1.7395
        31                         -0.0376165              -1.0236
        32                          0.0238662               0.6494
        33                          0.0271023               0.7375
        34                          0.1009750               2.7477
        35                          0.1324878               3.6052
        36                          0.1642491               4.4694
        37                          0.1776882               4.8351
        38                          0.1980383               5.3889
        39                          0.2448051               6.6615
       ...                                ...                  ...
        56                          0.8668461              23.5881
      -------------------------------------------------------------
                  HL-Gap            0.0125344 Eh            0.3411 eV

     #   Z          covCN         q      C6AA      α(0)
     1   6 C        3.773    -0.092    22.279     6.726
     2   6 C        2.972     0.017    27.629     8.622
     3   6 C        3.120    -0.057    29.237     8.856
     4   6 C        3.131    -0.004    27.902     8.647
     5   6 C        3.254     0.041    26.020     8.252
     6   7 N        1.953    -0.333    29.461     8.049
     7   7 N        2.949    -0.057    22.342     7.020
     8   6 C        3.071    -0.020    28.427     8.742
     9   6 C        2.001    -0.367    42.747    10.559
    10   6 C        2.943    -0.031    28.770     8.797
    11  16 S        2.297    -0.208   149.908    20.607
    12   1 H        0.924     0.024     2.669     2.555
    13   1 H        0.925     0.032     2.562     2.503
    14   1 H        0.924     0.024     2.668     2.554
    15   1 H        0.926     0.020     2.737     2.587
    16   1 H        0.860     0.072     2.076     2.257
    17   1 H        0.925    -0.088     5.167     3.555
    18   1 H        0.927     0.025     2.659     2.550

Wiberg/Mayer (AO) data.
largest (>0.10) Wiberg bond orders for each atom

     #   Z sym  total        # sym  WBO       # sym  WBO       # sym  WBO
 ---------------------------------------------------------------------------
     1   6 C    3.997 --     2 C    1.024    13 H    0.987    14 H    0.977
                            12 H    0.976
     2   6 C    3.937 --     3 C    1.655    11 S    1.114     1 C    1.024
                            10 C    0.108
     3   6 C    3.985 --     2 C    1.655     4 C    1.184    15 H    0.963
                            11 S    0.101
     4   6 C    3.975 --    10 C    1.537     3 C    1.184     5 C    1.109
     5   6 C    3.934 --     6 N    1.364     9 C    1.231     4 C    1.109
                             7 N    0.106
     6   7 N    2.911 --     5 C    1.364     7 N    1.199     8 C    0.202
     7   7 N    3.533 --     6 N    1.199     8 C    1.151    16 H    0.955
                             5 C    0.106
     8   6 C    3.885 --     9 C    1.525     7 N    1.151    17 H    0.961
                             6 N    0.202
     9   6 C    2.988 --     8 C    1.525     5 C    1.231
    10   6 C    3.906 --     4 C    1.537    11 S    1.118    18 H    0.970
                             2 C    0.108
    11  16 S    2.510 --    10 C    1.118     2 C    1.114     3 C    0.101
    12   1 H    0.999 --     1 C    0.976
    13   1 H    0.999 --     1 C    0.987
    14   1 H    0.999 --     1 C    0.977
    15   1 H    1.000 --     3 C    0.963
    16   1 H    0.994 --     7 N    0.955
    17   1 H    0.992 --     8 C    0.961
    18   1 H    0.999 --    10 C    0.970
 ---------------------------------------------------------------------------

molecular dipole:
                 x           y           z       tot (Debye)
 q only:       -2.795      -0.531      -0.691
   full:       -2.326      -1.287      -1.289       7.511

           -------------------------------------------------
          | TOTAL ENERGY              -29.878361241409 Eh   |
          | GRADIENT NORM               0.000524033673 Eh/α |
          | HOMO-LUMO GAP               0.341077827599 eV   |
           -------------------------------------------------

 * finished run on 2022/11/02 at 18:13:37.689
