   * xtb version 6.4.1 (afa7bdf) compiled by 'ehlert@majestix' on 2021-06-10
          program call               : /lustre/hpc/kemi/borup/pKalculator/dep/xtb-6.4.1/bin/xtb --gfn 2 /lustre/hpc/kemi/borup/pKalculator/calc/test#-1=1/conf07/test#-1=1_conf07_gfn2.xyz --opt --lmo --chrg -1 --uhf 0
          number of atoms            :                    18
          number of electrons        :                    56
          charge                     :                    -1
          spin                       :                   0.0

   ID    Z sym.   atoms
    1    6 C      1-5, 8-10
    2    7 N      6, 7
    3   16 S      11
    4    1 H      12-18

          :  Hamiltonian                  GFN2-xTB          :
 * total energy  :   -29.8639878 Eh     change        0.5830358E-10 Eh
 * total energy  :   -29.8757875 Eh     change       -0.1179965E-01 Eh
 * total energy  :   -29.8792626 Eh     change       -0.3475161E-02 Eh
 * total energy  :   -29.8794778 Eh     change       -0.2151630E-03 Eh
 * total energy  :   -29.8795788 Eh     change       -0.1010503E-03 Eh
 * total energy  :   -29.8795959 Eh     change       -0.1708615E-04 Eh
 * total energy  :   -29.8796129 Eh     change       -0.1701240E-04 Eh
 * total energy  :   -29.8796215 Eh     change       -0.8571054E-05 Eh
 * total energy  :   -29.8796382 Eh     change       -0.1670749E-04 Eh
 * total energy  :   -29.8796447 Eh     change       -0.6462159E-05 Eh
 * total energy  :   -29.8801903 Eh     change       -0.1804850E-04 Eh
 * total energy  :   -29.8801116 Eh     change        0.7875463E-04 Eh
 * total energy  :   -29.8802139 Eh     change       -0.1022716E-03 Eh
 * total energy  :   -29.8802184 Eh     change       -0.4574755E-05 Eh
 * total energy  :   -29.8802264 Eh     change       -0.7965557E-05 Eh
 * total energy  :   -29.8802341 Eh     change       -0.7665819E-05 Eh
 * total energy  :   -29.8801244 Eh     change        0.1096866E-03 Eh
 * total energy  :   -29.8802464 Eh     change       -0.1219984E-03 Eh
 * total energy  :   -29.8802504 Eh     change       -0.4065478E-05 Eh
   *** GEOMETRY OPTIMIZATION CONVERGED AFTER 39 ITERATIONS ***

 final structure:
================
18
 xtb: 6.4.1 (afa7bdf)
C         3.48407840843631   -0.56241081615422   -0.61088806367840
C         2.19849333371051    0.05872148767529   -0.18096797772868
C         0.94221512505294   -0.41847438119748   -0.30205408816622
C        -0.07248117147887    0.44136363591122    0.22676441720347
C        -1.46389840573514    0.09380430571589    0.18423380134886
N        -2.39524731251207    0.92876382411510    0.69445035791296
N        -3.54432980108907    0.27963468186561    0.47778267468451
C        -3.32731826815804   -0.93021120035635   -0.15248001547313
C        -1.97771644157389   -1.13644663317529   -0.38533894228862
C         0.47008478758624    1.57934831856724    0.74817436714913
S         2.20262337367471    1.62222101550373    0.60609042830699
H         4.12397247321854   -0.77020205565627    0.25006267137223
H         4.03259729150572    0.10229054591185   -1.28079296177422
H         3.28197990528543   -1.49784290431293   -1.13029788173913
H         0.68483750085106   -1.36139711184987   -0.75292503714460
H        -4.41500970390886    0.70571316913383    0.77348764698727
H        -4.19638187964887   -1.54147709286681   -0.37676935141723
H        -0.02850021521637    2.40660021116944    1.21146495444506

          :  Hamiltonian                  GFN2-xTB          :
         :: total energy             -29.880250436629 Eh    ::
         :: gradient norm              0.000786577717 Eh/a0 ::
         :: HOMO-LUMO gap              0.467400643131 eV    ::
         :: SCC energy               -30.292650184792 Eh    ::
         :: -> dispersion             -0.018412774494 Eh    ::
         :: repulsion energy           0.412444113827 Eh    ::

    * Orbital Energies and Occupations

         #    Occupation            Energy/Eh            Energy/eV
      -------------------------------------------------------------
         1        2.0000           -0.5798065             -15.7773
       ...           ...                  ...                  ...
        16        2.0000           -0.3266913              -8.8897
        17        2.0000           -0.3183012              -8.6614
        18        2.0000           -0.3159195              -8.5966
        19        2.0000           -0.3069298              -8.3520
        20        2.0000           -0.3007701              -8.1844
        21        2.0000           -0.2746034              -7.4723
        22        2.0000           -0.2498338              -6.7983
        23        2.0000           -0.2366026              -6.4383
        24        2.0000           -0.2273588              -6.1867
        25        2.0000           -0.1933959              -5.2626
        26        2.0000           -0.1818498              -4.9484
        27        2.0000           -0.1588736              -4.3232
        28        1.9998           -0.1061137              -2.8875 (HOMO)
        29        0.0002           -0.0889370              -2.4201 (LUMO)
        30                         -0.0620465              -1.6884
        31                         -0.0357299              -0.9723
        32                          0.0238292               0.6484
        33                          0.0261395               0.7113
        34                          0.0992364               2.7004
        35                          0.1341496               3.6504
        36                          0.1621454               4.4122
        37                          0.1767748               4.8103
        38                          0.1956012               5.3226
        39                          0.2454957               6.6803
       ...                                ...                  ...
        56                          0.8671524              23.5964
      -------------------------------------------------------------
                  HL-Gap            0.0171767 Eh            0.4674 eV

     #   Z          covCN         q      C6AA      α(0)
     1   6 C        3.773    -0.092    22.279     6.726
     2   6 C        2.972     0.019    27.573     8.613
     3   6 C        3.117    -0.057    29.233     8.856
     4   6 C        3.127    -0.004    27.918     8.651
     5   6 C        3.252     0.043    26.008     8.253
     6   7 N        1.952    -0.336    29.550     8.061
     7   7 N        2.952    -0.053    22.264     7.008
     8   6 C        3.067    -0.020    28.448     8.746
     9   6 C        2.002    -0.361    42.546    10.534
    10   6 C        2.941    -0.031    28.784     8.799
    11  16 S        2.289    -0.222   150.525    20.649
    12   1 H        0.924     0.027     2.635     2.539
    13   1 H        0.924     0.027     2.625     2.533
    14   1 H        0.925     0.028     2.615     2.529
    15   1 H        0.926     0.036     2.498     2.471
    16   1 H        0.860     0.074     2.060     2.248
    17   1 H        0.925    -0.087     5.129     3.542
    18   1 H        0.926     0.009     2.905     2.666

Wiberg/Mayer (AO) data.
largest (>0.10) Wiberg bond orders for each atom

     #   Z sym  total        # sym  WBO       # sym  WBO       # sym  WBO
 ---------------------------------------------------------------------------
     1   6 C    3.998 --     2 C    1.028    14 H    0.983    13 H    0.978
                            12 H    0.976
     2   6 C    3.939 --     3 C    1.667    11 S    1.100     1 C    1.028
                            10 C    0.105
     3   6 C    3.986 --     2 C    1.667     4 C    1.180    15 H    0.959
     4   6 C    3.977 --    10 C    1.542     3 C    1.180     5 C    1.109
     5   6 C    3.934 --     6 N    1.371     9 C    1.223     4 C    1.109
                             7 N    0.104
     6   7 N    2.911 --     5 C    1.371     7 N    1.199     8 C    0.203
     7   7 N    3.536 --     6 N    1.199     8 C    1.157    16 H    0.955
                             5 C    0.104
     8   6 C    3.884 --     9 C    1.519     7 N    1.157    17 H    0.961
                             6 N    0.203
     9   6 C    2.998 --     8 C    1.519     5 C    1.223
    10   6 C    3.905 --     4 C    1.542    11 S    1.107    18 H    0.972
                             2 C    0.105
    11  16 S    2.495 --    10 C    1.107     2 C    1.100
    12   1 H    0.999 --     1 C    0.976
    13   1 H    0.999 --     1 C    0.978
    14   1 H    0.999 --     1 C    0.983
    15   1 H    0.999 --     3 C    0.959
    16   1 H    0.994 --     7 N    0.955
    17   1 H    0.992 --     8 C    0.961
    18   1 H    1.000 --    10 C    0.972
 ---------------------------------------------------------------------------

molecular dipole:
                 x           y           z       tot (Debye)
 q only:        2.376      -0.244      -0.348
   full:        1.553      -0.112      -0.201       3.989

           -------------------------------------------------
          | TOTAL ENERGY              -29.880250436629 Eh   |
          | GRADIENT NORM               0.000786577717 Eh/α |
          | HOMO-LUMO GAP               0.467400643131 eV   |
           -------------------------------------------------

 * finished run on 2022/11/02 at 18:13:38.334
