   * xtb version 6.4.1 (afa7bdf) compiled by 'ehlert@majestix' on 2021-06-10
          program call               : /lustre/hpc/kemi/borup/pKalculator/dep/xtb-6.4.1/bin/xtb --gfn 2 /lustre/hpc/kemi/borup/pKalculator/calc/test#-1=11/conf02/test#-1=11_conf02_gfn2.xyz --opt --lmo --chrg -1 --uhf 0
          number of atoms            :                    18
          number of electrons        :                    56
          charge                     :                    -1
          spin                       :                   0.0

   ID    Z sym.   atoms
    1    6 C      1-5, 8-10
    2    7 N      6, 7
    3   16 S      11
    4    1 H      12-18

          :  Hamiltonian                  GFN2-xTB          :
 * total energy  :   -29.8881839 Eh     change       -0.1385981E-08 Eh
 * total energy  :   -29.8971082 Eh     change       -0.8924253E-02 Eh
 * total energy  :   -29.8992549 Eh     change       -0.2146760E-02 Eh
 * total energy  :   -29.8994653 Eh     change       -0.2103624E-03 Eh
 * total energy  :   -29.8995684 Eh     change       -0.1030934E-03 Eh
 * total energy  :   -29.8995997 Eh     change       -0.3130137E-04 Eh
 * total energy  :   -29.8996250 Eh     change       -0.2532527E-04 Eh
 * total energy  :   -29.8996492 Eh     change       -0.2422245E-04 Eh
 * total energy  :   -29.8996618 Eh     change       -0.1258485E-04 Eh
 * total energy  :   -29.8996889 Eh     change       -0.2709286E-04 Eh
 * total energy  :   -29.8998225 Eh     change       -0.3327979E-04 Eh
 * total energy  :   -29.8998330 Eh     change       -0.1046948E-04 Eh
 * total energy  :   -29.8998394 Eh     change       -0.6422763E-05 Eh
 * total energy  :   -29.8998470 Eh     change       -0.7661210E-05 Eh
 * total energy  :   -29.8998554 Eh     change       -0.8380425E-05 Eh
 * total energy  :   -29.8998607 Eh     change       -0.5267062E-05 Eh
 * total energy  :   -29.8998432 Eh     change        0.1744547E-04 Eh
 * total energy  :   -29.8998640 Eh     change       -0.2074372E-04 Eh
 * total energy  :   -29.8998654 Eh     change       -0.1443415E-05 Eh
   *** GEOMETRY OPTIMIZATION CONVERGED AFTER 23 ITERATIONS ***

 final structure:
================
18
 xtb: 6.4.1 (afa7bdf)
C        -3.41028965571503   -0.37034824404180    0.55317232557899
C        -2.08012551267434    0.14944346239267    0.12553742551085
C        -0.85719167405793   -0.39066355163503    0.31530732003430
C         0.22123677566868    0.37529216352110   -0.23286105617089
C         1.59655476640839   -0.02905863285661   -0.13978651315812
N         1.93441468563680   -1.16425576358422    0.50002979995462
N         3.28385901837866   -1.18825221193408    0.36648572496603
C         3.88656113504676   -0.16250380310492   -0.31267713701095
C         2.74858396368541    0.60536995207308   -0.64628799779063
C        -0.24091024825334    1.50682201271732   -0.83821036106631
S        -1.96876181708761    1.65496870830845   -0.75289127501639
H        -3.92015228712524    0.34819789055648    1.19627768283702
H        -3.28081330719595   -1.30166013341780    1.10113547012903
H        -4.05033771362699   -0.55738134710939   -0.31046080012162
H        -0.67800732545440   -1.31746704726098    0.83179543068596
H         3.76633160044742   -1.97397369488485    0.78311272533934
H         2.74056867559744    1.53570359008595   -1.20230572659424
H         0.30847892032109    2.27976565017460   -1.33737303810716

          :  Hamiltonian                  GFN2-xTB          :
         :: total energy             -29.899865435765 Eh    ::
         :: gradient norm              0.000486755396 Eh/a0 ::
         :: HOMO-LUMO gap              0.521104021317 eV    ::
         :: SCC energy               -30.314919466142 Eh    ::
         :: -> dispersion             -0.018632895418 Eh    ::
         :: repulsion energy           0.415081665490 Eh    ::

    * Orbital Energies and Occupations

         #    Occupation            Energy/Eh            Energy/eV
      -------------------------------------------------------------
         1        2.0000           -0.5935893             -16.1524
       ...           ...                  ...                  ...
        16        2.0000           -0.3329796              -9.0608
        17        2.0000           -0.3234644              -8.8019
        18        2.0000           -0.3136185              -8.5340
        19        2.0000           -0.3041127              -8.2753
        20        2.0000           -0.2931959              -7.9783
        21        2.0000           -0.2742072              -7.4616
        22        2.0000           -0.2610214              -7.1028
        23        2.0000           -0.2496981              -6.7946
        24        2.0000           -0.2432279              -6.6186
        25        2.0000           -0.1897883              -5.1644
        26        2.0000           -0.1849107              -5.0317
        27        2.0000           -0.1568317              -4.2676
        28        1.9999           -0.1211175              -3.2958 (HOMO)
        29        0.0001           -0.1019673              -2.7747 (LUMO)
        30                         -0.0744465              -2.0258
        31                         -0.0418008              -1.1375
        32                          0.0115433               0.3141
        33                          0.0337519               0.9184
        34                          0.0884366               2.4065
        35                          0.1216059               3.3091
        36                          0.1502209               4.0877
        37                          0.1640878               4.4651
        38                          0.2160161               5.8781
        39                          0.2335268               6.3546
       ...                                ...                  ...
        56                          0.8795879              23.9348
      -------------------------------------------------------------
                  HL-Gap            0.0191502 Eh            0.5211 eV

     #   Z          covCN         q      C6AA      α(0)
     1   6 C        3.774    -0.092    22.287     6.727
     2   6 C        2.972     0.020    27.563     8.612
     3   6 C        3.121    -0.054    29.151     8.843
     4   6 C        3.128    -0.005    27.952     8.656
     5   6 C        3.103     0.036    27.076     8.527
     6   7 N        1.949    -0.354    30.027     8.126
     7   7 N        3.068    -0.032    21.854     6.943
     8   6 C        1.959    -0.309    40.624    10.293
     9   6 C        3.073    -0.086    30.078     8.992
    10   6 C        2.943    -0.032    28.795     8.801
    11  16 S        2.295    -0.200   149.578    20.584
    12   1 H        0.924     0.030     2.592     2.518
    13   1 H        0.925     0.029     2.600     2.521
    14   1 H        0.924     0.029     2.595     2.519
    15   1 H        0.926     0.028     2.609     2.526
    16   1 H        0.860     0.072     2.073     2.255
    17   1 H        0.925    -0.090     5.232     3.577
    18   1 H        0.926     0.010     2.892     2.659

Wiberg/Mayer (AO) data.
largest (>0.10) Wiberg bond orders for each atom

     #   Z sym  total        # sym  WBO       # sym  WBO       # sym  WBO
 ---------------------------------------------------------------------------
     1   6 C    3.998 --     2 C    1.028    13 H    0.983    12 H    0.977
                            14 H    0.976
     2   6 C    3.940 --     3 C    1.662    11 S    1.110     1 C    1.028
                            10 C    0.106
     3   6 C    3.986 --     2 C    1.662     4 C    1.181    15 H    0.962
     4   6 C    3.977 --    10 C    1.550     3 C    1.181     5 C    1.099
     5   6 C    3.958 --     6 N    1.361     9 C    1.325     4 C    1.099
     6   7 N    2.912 --     5 C    1.361     7 N    1.160     8 C    0.186
                             9 C    0.122
     7   7 N    3.547 --     8 C    1.267     6 N    1.160    16 H    0.964
     8   6 C    2.926 --     9 C    1.437     7 N    1.267     6 N    0.186
     9   6 C    3.948 --     8 C    1.437     5 C    1.325    17 H    0.967
                             6 N    0.122
    10   6 C    3.907 --     4 C    1.550    11 S    1.113    18 H    0.971
                             2 C    0.106
    11  16 S    2.497 --    10 C    1.113     2 C    1.110
    12   1 H    0.999 --     1 C    0.977
    13   1 H    0.999 --     1 C    0.983
    14   1 H    0.999 --     1 C    0.976
    15   1 H    0.999 --     3 C    0.962
    16   1 H    0.994 --     7 N    0.964
    17   1 H    0.992 --     9 C    0.967
    18   1 H    1.000 --    10 C    0.971
 ---------------------------------------------------------------------------

molecular dipole:
                 x           y           z       tot (Debye)
 q only:       -3.344      -0.411       0.579
   full:       -3.710      -0.524       0.682       9.679

           -------------------------------------------------
          | TOTAL ENERGY              -29.899865435765 Eh   |
          | GRADIENT NORM               0.000486755396 Eh/α |
          | HOMO-LUMO GAP               0.521104021317 eV   |
           -------------------------------------------------

 * finished run on 2022/11/02 at 18:13:39.665
