   * xtb version 6.4.1 (afa7bdf) compiled by 'ehlert@majestix' on 2021-06-10
          program call               : /lustre/hpc/kemi/borup/pKalculator/dep/xtb-6.4.1/bin/xtb --gfn 2 /lustre/hpc/kemi/borup/pKalculator/calc/furan#-1=2/conf01/furan#-1=2_conf01_gfn2.xyz --opt --lmo --chrg -1 --uhf 0 --alpb DMSO
          number of atoms            :                     8
          number of electrons        :                    26
          charge                     :                    -1

   ID    Z sym.   atoms
    1    6 C      1-4
    2    8 O      5
    3    1 H      6-8

        Solvent                        DMSO
        Solvent mass                       7.8130E+01 g/mol
          :  Hamiltonian                  GFN2-xTB          :
 * total energy  :   -14.3268571 Eh     change       -0.5748859E-09 Eh
 * total energy  :   -14.3343775 Eh     change       -0.7520490E-02 Eh
 * total energy  :   -14.3356183 Eh     change       -0.1240802E-02 Eh
 * total energy  :   -14.3357502 Eh     change       -0.1318088E-03 Eh
 * total energy  :   -14.3357611 Eh     change       -0.1093319E-04 Eh
 * total energy  :   -14.3357643 Eh     change       -0.3189593E-05 Eh
   *** GEOMETRY OPTIMIZATION CONVERGED AFTER 6 ITERATIONS ***

 final structure:
================
8
 xtb: 6.4.1 (afa7bdf)
C         0.67242019583867   -1.44704976127984   -0.02650607250837
C         1.11363169717245   -0.12729980782381    0.07882734932138
C         0.01028560139648    0.75222494707183    0.21413029586384
C        -1.09254259957150   -0.04318688644817    0.18952211193917
O        -0.72675073511778   -1.34133197284306    0.04790699957134
H         2.15522022752934    0.19722916260293    0.06132333731173
H         0.01837607720165    1.83241580541358    0.31767468506835
H        -2.15064146444932    0.17699751330654    0.25901529343255

          :  Hamiltonian                  GFN2-xTB          :
         :: total energy             -14.335764281200 Eh    ::
         :: gradient norm              0.000720489259 Eh/a0 ::
         :: HOMO-LUMO gap              3.656330201017 eV    ::
         :: SCC energy               -14.507637728150 Eh    ::
         :: -> dispersion             -0.005485118561 Eh    ::
         :: -> Gsolv                  -0.083992505157 Eh    ::
         :: repulsion energy           0.171872885553 Eh    ::

    * Orbital Energies and Occupations

         #    Occupation            Energy/Eh            Energy/eV
      -------------------------------------------------------------
         1        2.0000           -0.6253884             -17.0177
         2        2.0000           -0.5595315             -15.2256
         3        2.0000           -0.5409437             -14.7198
         4        2.0000           -0.4909121             -13.3584
         5        2.0000           -0.4797707             -13.0552
         6        2.0000           -0.4643089             -12.6345
         7        2.0000           -0.4466715             -12.1546
         8        2.0000           -0.4039704             -10.9926
         9        2.0000           -0.3825016             -10.4084
        10        2.0000           -0.3663559              -9.9691
        11        2.0000           -0.3308095              -9.0018
        12        2.0000           -0.2701605              -7.3514
        13        2.0000           -0.2459259              -6.6920 (HOMO)
        14                         -0.1115582              -3.0357 (LUMO)
        15                         -0.0563089              -1.5322
        16                          0.1369297               3.7260
        17                          0.1878377               5.1113
        18                          0.2152193               5.8564
        19                          0.2777984               7.5593
        20                          0.3109170               8.4605
        21                          0.5034276              13.6990
        22                          0.5256049              14.3024
        23                          0.7220319              19.6475
      -------------------------------------------------------------
                  HL-Gap            0.1343677 Eh            3.6563 eV

     #   Z          covCN         q      C6AA      α(0)
     1   6 C        1.958    -0.253    38.676    10.043
     2   6 C        3.029    -0.087    30.150     9.007
     3   6 C        2.946    -0.084    30.094     8.997
     4   6 C        2.967     0.040    27.089     8.537
     5   8 O        1.730    -0.316    19.262     5.926
     6   1 H        0.924    -0.121     6.365     3.945
     7   1 H        0.925    -0.093     5.307     3.602
     8   1 H        0.925    -0.087     5.125     3.540

Wiberg/Mayer (AO) data.
largest (>0.10) Wiberg bond orders for each atom

     #   Z sym  total        # sym  WBO       # sym  WBO       # sym  WBO
 ---------------------------------------------------------------------------
     1   6 C    2.845 --     2 C    1.564     5 O    1.061     4 C    0.173
     2   6 C    3.922 --     1 C    1.564     3 C    1.294     6 H    0.963
     3   6 C    3.958 --     4 C    1.580     2 C    1.294     7 H    0.965
     4   6 C    3.901 --     3 C    1.580     5 O    1.112     8 H    0.959
                             1 C    0.173
     5   8 O    2.312 --     4 C    1.112     1 C    1.061
     6   1 H    0.985 --     2 C    0.963
     7   1 H    0.991 --     3 C    0.965
     8   1 H    0.992 --     4 C    0.959
 ---------------------------------------------------------------------------

molecular dipole:
                 x           y           z       tot (Debye)
 q only:       -0.300       0.997      -0.160
   full:       -0.693       1.840      -0.062       4.999

           -------------------------------------------------
          | TOTAL ENERGY              -14.335764281200 Eh   |
          | GRADIENT NORM               0.000720489259 Eh/α |
          | HOMO-LUMO GAP               3.656330201017 eV   |
           -------------------------------------------------

 * finished run on 2022/11/04 at 10:55:58.627
