   * xtb version 6.4.1 (afa7bdf) compiled by 'ehlert@majestix' on 2021-06-10
          program call               : /lustre/hpc/kemi/borup/pKalculator/dep/xtb-6.4.1/bin/xtb --gfn 2 /lustre/hpc/kemi/borup/pKalculator/calc/test#-1=8/conf04/test#-1=8_conf04_gfn2.xyz --opt --lmo --chrg -1 --uhf 0
          number of atoms            :                    18
          number of electrons        :                    56
          charge                     :                    -1
          spin                       :                   0.0

   ID    Z sym.   atoms
    1    6 C      1-5, 8-10
    2    7 N      6, 7
    3   16 S      11
    4    1 H      12-18

          :  Hamiltonian                  GFN2-xTB          :
 * total energy  :   -29.9193089 Eh     change       -0.1633005E-09 Eh
 * total energy  :   -29.9238822 Eh     change       -0.4573308E-02 Eh
 * total energy  :   -29.9249663 Eh     change       -0.1084162E-02 Eh
 * total energy  :   -29.9250823 Eh     change       -0.1159525E-03 Eh
 * total energy  :   -29.9251480 Eh     change       -0.6567727E-04 Eh
 * total energy  :   -29.9251595 Eh     change       -0.1152777E-04 Eh
 * total energy  :   -29.9251667 Eh     change       -0.7239821E-05 Eh
 * total energy  :   -29.9251708 Eh     change       -0.4095519E-05 Eh
   *** GEOMETRY OPTIMIZATION CONVERGED AFTER 8 ITERATIONS ***

 final structure:
================
18
 xtb: 6.4.1 (afa7bdf)
C        -3.74650652052024   -0.49725945996198   -0.45336892633340
C        -2.49725011061212   -0.58203381700678    0.07369103614099
C        -1.28128710847897   -0.03447337930802   -0.37113569595442
C        -0.17225654087851   -0.33995753243704    0.43517986446854
C         1.16643519031304    0.12245919023292    0.15788798313517
N         2.23342527297175   -0.25848007474325    0.85303835668525
N         3.28136414407743    0.37730196456601    0.30673550407647
C         2.91427625132798    1.16502235371403   -0.73182236898523
C         1.56041976409962    1.03112945144378   -0.86280241291565
C        -0.47037476842084   -1.12618855449952    1.52437995578159
S        -2.18097566248419   -1.49880922161154    1.57570970897324
H        -3.91926097926601    0.06049936536999   -1.36020349553843
H        -4.59482521443110   -0.97529001904047    0.00549608790423
H        -1.23395203694177    0.55175913058316   -1.27480504102231
H         4.20433870299148    0.23084074933415    0.68036326182278
H         3.63483262347570    1.74428577971298   -1.27904103657747
H         0.92483130693038    1.51130921745359   -1.57826269755413
H         0.17676568584654   -1.48211414380221    2.29895891589265

          :  Hamiltonian                  GFN2-xTB          :
         :: total energy             -29.925170819114 Eh    ::
         :: gradient norm              0.000571131515 Eh/a0 ::
         :: HOMO-LUMO gap              0.585947762485 eV    ::
         :: SCC energy               -30.369931649049 Eh    ::
         :: -> dispersion             -0.019012262007 Eh    ::
         :: repulsion energy           0.444797755672 Eh    ::

    * Orbital Energies and Occupations

         #    Occupation            Energy/Eh            Energy/eV
      -------------------------------------------------------------
         1        2.0000           -0.5617825             -15.2869
       ...           ...                  ...                  ...
        16        2.0000           -0.3239524              -8.8152
        17        2.0000           -0.2970221              -8.0824
        18        2.0000           -0.2959235              -8.0525
        19        2.0000           -0.2749608              -7.4821
        20        2.0000           -0.2731092              -7.4317
        21        2.0000           -0.2652060              -7.2166
        22        2.0000           -0.2620845              -7.1317
        23        2.0000           -0.2575397              -7.0080
        24        2.0000           -0.2529388              -6.8828
        25        2.0000           -0.2423410              -6.5944
        26        2.0000           -0.2073388              -5.6420
        27        2.0000           -0.1950988              -5.3089
        28        2.0000           -0.1094778              -2.9790 (HOMO)
        29        0.0000           -0.0879446              -2.3931 (LUMO)
        30                         -0.0489670              -1.3325
        31                         -0.0146785              -0.3994
        32                          0.0131784               0.3586
        33                          0.0666265               1.8130
        34                          0.0748981               2.0381
        35                          0.1288843               3.5071
        36                          0.1837829               5.0010
        37                          0.2162738               5.8851
        38                          0.2223247               6.0498
        39                          0.2390608               6.5052
       ...                                ...                  ...
        56                          0.8854650              24.0947
      -------------------------------------------------------------
                  HL-Gap            0.0215332 Eh            0.5859 eV

     #   Z          covCN         q      C6AA      α(0)
     1   6 C        2.874    -0.193    33.065     9.426
     2   6 C        2.960     0.047    26.933     8.512
     3   6 C        3.071    -0.130    31.228     9.163
     4   6 C        3.123    -0.027    28.497     8.742
     5   6 C        3.135     0.073    26.158     8.372
     6   7 N        1.990    -0.266    27.704     7.806
     7   7 N        2.980    -0.023    21.683     6.916
     8   6 C        2.987    -0.016    28.407     8.743
     9   6 C        3.025    -0.077    29.899     8.969
    10   6 C        2.926    -0.057    29.405     8.893
    11  16 S        2.276    -0.303   154.197    20.900
    12   1 H        0.926    -0.049     4.069     3.154
    13   1 H        0.926    -0.043     3.922     3.097
    14   1 H        0.926    -0.045     3.972     3.117
    15   1 H        0.860     0.129     1.554     1.953
    16   1 H        0.926    -0.006     3.173     2.785
    17   1 H        0.926     0.009     2.909     2.667
    18   1 H        0.927    -0.024     3.501     2.926

Wiberg/Mayer (AO) data.
largest (>0.10) Wiberg bond orders for each atom

     #   Z sym  total        # sym  WBO       # sym  WBO       # sym  WBO
 ---------------------------------------------------------------------------
     1   6 C    3.860 --     2 C    1.568    13 H    0.980    12 H    0.972
                             3 C    0.115    11 S    0.100
     2   6 C    3.931 --     1 C    1.568     3 C    1.287    11 S    1.006
     3   6 C    3.911 --     4 C    1.299     2 C    1.287    14 H    0.963
                            10 C    0.147     1 C    0.115
     4   6 C    3.975 --    10 C    1.449     3 C    1.299     5 C    1.089
     5   6 C    3.967 --     6 N    1.458     9 C    1.270     4 C    1.089
     6   7 N    2.933 --     5 C    1.458     7 N    1.172     8 C    0.163
     7   7 N    3.575 --     8 C    1.244     6 N    1.172    15 H    0.953
     8   6 C    3.950 --     9 C    1.554     7 N    1.244    16 H    0.969
                             6 N    0.163
     9   6 C    3.976 --     8 C    1.554     5 C    1.270    17 H    0.974
    10   6 C    3.871 --     4 C    1.449    11 S    1.076    18 H    0.972
                             3 C    0.147
    11  16 S    2.358 --    10 C    1.076     2 C    1.006     1 C    0.100
    12   1 H    0.997 --     1 C    0.972
    13   1 H    0.998 --     1 C    0.980
    14   1 H    0.998 --     3 C    0.963
    15   1 H    0.983 --     7 N    0.953
    16   1 H    0.999 --     8 C    0.969
    17   1 H    1.000 --     9 C    0.974
    18   1 H    0.999 --    10 C    0.972
 ---------------------------------------------------------------------------

molecular dipole:
                 x           y           z       tot (Debye)
 q only:        3.170       1.230      -0.810
   full:        3.723       1.736      -1.349      10.990

           -------------------------------------------------
          | TOTAL ENERGY              -29.925170819114 Eh   |
          | GRADIENT NORM               0.000571131515 Eh/α |
          | HOMO-LUMO GAP               0.585947762485 eV   |
           -------------------------------------------------

 * finished run on 2022/11/02 at 18:13:42.667
