   * xtb version 6.4.1 (afa7bdf) compiled by 'ehlert@majestix' on 2021-06-10
          program call               : /lustre/hpc/kemi/borup/pKalculator/dep/xtb-6.4.1/bin/xtb --gfn 2 /lustre/hpc/kemi/borup/pKalculator/calc/test#-1=11/conf01/test#-1=11_conf01_gfn2.xyz --opt --lmo --chrg -1 --uhf 0
          number of atoms            :                    18
          number of electrons        :                    56
          charge                     :                    -1
          spin                       :                   0.0

   ID    Z sym.   atoms
    1    6 C      1-5, 8-10
    2    7 N      6, 7
    3   16 S      11
    4    1 H      12-18

          :  Hamiltonian                  GFN2-xTB          :
 * total energy  :   -29.8889212 Eh     change       -0.2897526E-08 Eh
 * total energy  :   -29.8973873 Eh     change       -0.8466149E-02 Eh
 * total energy  :   -29.8992525 Eh     change       -0.1865153E-02 Eh
 * total energy  :   -29.8994419 Eh     change       -0.1893756E-03 Eh
 * total energy  :   -29.8995393 Eh     change       -0.9739480E-04 Eh
 * total energy  :   -29.8995675 Eh     change       -0.2826678E-04 Eh
 * total energy  :   -29.8995909 Eh     change       -0.2334796E-04 Eh
 * total energy  :   -29.8996133 Eh     change       -0.2238319E-04 Eh
 * total energy  :   -29.8996238 Eh     change       -0.1049340E-04 Eh
 * total energy  :   -29.8996532 Eh     change       -0.2945200E-04 Eh
 * total energy  :   -29.8997588 Eh     change       -0.1702081E-05 Eh
 * total energy  :   -29.8997951 Eh     change       -0.3637490E-04 Eh
 * total energy  :   -29.8998064 Eh     change       -0.1131941E-04 Eh
 * total energy  :   -29.8998148 Eh     change       -0.8355423E-05 Eh
 * total energy  :   -29.8998223 Eh     change       -0.7521828E-05 Eh
 * total energy  :   -29.8998344 Eh     change       -0.1203765E-04 Eh
 * total energy  :   -29.8998442 Eh     change       -0.9814330E-05 Eh
 * total energy  :   -29.8998498 Eh     change       -0.5610800E-05 Eh
 * total energy  :   -29.8998547 Eh     change       -0.4960847E-05 Eh
   *** GEOMETRY OPTIMIZATION CONVERGED AFTER 22 ITERATIONS ***

 final structure:
================
18
 xtb: 6.4.1 (afa7bdf)
C        -3.45203928943614   -0.20669272170640    0.15478426468241
C        -2.05468068683831    0.31285278147673    0.16377213832420
C        -0.89636248578676   -0.37083297471501    0.02859742826893
C         0.27955310598674    0.44230031633696    0.08546494034714
C         1.62296556551590   -0.05647601887325   -0.03254778445834
N         2.68077675478736    0.77286459542998   -0.00570396829691
N         3.72889699048982   -0.07915939407596   -0.14150275147456
C         3.46288565360486   -1.41590129784474   -0.25557663095293
C         2.05349230926993   -1.39116465888539   -0.18182390271189
C        -0.04371785014605    1.75452884266248    0.26782863703533
S        -1.75634913743460    2.01964627322356    0.37234781185485
H        -4.04108351720487    0.27747914682758   -0.62524321552968
H        -3.44646010359620   -1.28005540658622   -0.02577138159840
H        -3.94403176544881   -0.01541084708338    1.10978150594318
H        -0.86217558210360   -1.43817180130603   -0.11185110213493
H         4.65152149975810    0.33569434954549   -0.15044708192813
H         1.39691445440759   -2.25232182227982   -0.22896969068532
H         0.61989508417503    2.59081963785344    0.34831278331496

          :  Hamiltonian                  GFN2-xTB          :
         :: total energy             -29.899854746248 Eh    ::
         :: gradient norm              0.000440821138 Eh/a0 ::
         :: HOMO-LUMO gap              0.553840886578 eV    ::
         :: SCC energy               -30.315203026228 Eh    ::
         :: -> dispersion             -0.018640539869 Eh    ::
         :: repulsion energy           0.415370731952 Eh    ::

    * Orbital Energies and Occupations

         #    Occupation            Energy/Eh            Energy/eV
      -------------------------------------------------------------
         1        2.0000           -0.5925029             -16.1228
       ...           ...                  ...                  ...
        16        2.0000           -0.3308713              -9.0035
        17        2.0000           -0.3211294              -8.7384
        18        2.0000           -0.3177850              -8.6474
        19        2.0000           -0.3043284              -8.2812
        20        2.0000           -0.2928162              -7.9679
        21        2.0000           -0.2746673              -7.4741
        22        2.0000           -0.2611685              -7.1068
        23        2.0000           -0.2487924              -6.7700
        24        2.0000           -0.2448370              -6.6624
        25        2.0000           -0.1890226              -5.1436
        26        2.0000           -0.1850586              -5.0357
        27        2.0000           -0.1578537              -4.2954
        28        2.0000           -0.1224741              -3.3327 (HOMO)
        29        0.0000           -0.1021208              -2.7788 (LUMO)
        30                         -0.0728930              -1.9835
        31                         -0.0419730              -1.1421
        32                          0.0125947               0.3427
        33                          0.0332164               0.9039
        34                          0.0877549               2.3879
        35                          0.1225824               3.3356
        36                          0.1511012               4.1117
        37                          0.1653876               4.5004
        38                          0.2119778               5.7682
        39                          0.2375991               6.4654
       ...                                ...                  ...
        56                          0.8686646              23.6376
      -------------------------------------------------------------
                  HL-Gap            0.0203533 Eh            0.5538 eV

     #   Z          covCN         q      C6AA      α(0)
     1   6 C        3.774    -0.091    22.275     6.725
     2   6 C        2.973     0.019    27.588     8.616
     3   6 C        3.119    -0.056    29.219     8.853
     4   6 C        3.126    -0.007    27.990     8.663
     5   6 C        3.104     0.036    27.053     8.523
     6   7 N        1.949    -0.359    30.164     8.144
     7   7 N        3.068    -0.030    21.815     6.937
     8   6 C        1.960    -0.307    40.558    10.284
     9   6 C        3.073    -0.084    30.013     8.982
    10   6 C        2.945    -0.027    28.684     8.784
    11  16 S        2.291    -0.201   149.622    20.587
    12   1 H        0.924     0.030     2.589     2.516
    13   1 H        0.925     0.028     2.620     2.531
    14   1 H        0.924     0.029     2.595     2.519
    15   1 H        0.926     0.014     2.819     2.626
    16   1 H        0.860     0.073     2.064     2.250
    17   1 H        0.925    -0.088     5.155     3.550
    18   1 H        0.927     0.020     2.729     2.583

Wiberg/Mayer (AO) data.
largest (>0.10) Wiberg bond orders for each atom

     #   Z sym  total        # sym  WBO       # sym  WBO       # sym  WBO
 ---------------------------------------------------------------------------
     1   6 C    3.998 --     2 C    1.029    13 H    0.983    12 H    0.977
                            14 H    0.976
     2   6 C    3.940 --     3 C    1.653    11 S    1.114     1 C    1.029
                            10 C    0.109
     3   6 C    3.985 --     2 C    1.653     4 C    1.187    15 H    0.962
     4   6 C    3.977 --    10 C    1.550     3 C    1.187     5 C    1.094
     5   6 C    3.958 --     6 N    1.371     9 C    1.319     4 C    1.094
     6   7 N    2.910 --     5 C    1.371     7 N    1.158     8 C    0.187
                             9 C    0.120
     7   7 N    3.549 --     8 C    1.273     6 N    1.158    16 H    0.964
     8   6 C    2.933 --     9 C    1.434     7 N    1.273     6 N    0.187
     9   6 C    3.949 --     8 C    1.434     5 C    1.319    17 H    0.966
                             6 N    0.120
    10   6 C    3.912 --     4 C    1.550    11 S    1.114    18 H    0.971
                             2 C    0.109
    11  16 S    2.504 --     2 C    1.114    10 C    1.114
    12   1 H    0.999 --     1 C    0.977
    13   1 H    0.999 --     1 C    0.983
    14   1 H    0.999 --     1 C    0.976
    15   1 H    1.000 --     3 C    0.962
    16   1 H    0.994 --     7 N    0.964
    17   1 H    0.992 --     9 C    0.966
    18   1 H    0.999 --    10 C    0.971
 ---------------------------------------------------------------------------

molecular dipole:
                 x           y           z       tot (Debye)
 q only:       -3.176       0.168       0.059
   full:       -3.493       0.149       0.067       8.889

           -------------------------------------------------
          | TOTAL ENERGY              -29.899854746248 Eh   |
          | GRADIENT NORM               0.000440821138 Eh/α |
          | HOMO-LUMO GAP               0.553840886578 eV   |
           -------------------------------------------------

 * finished run on 2022/11/02 at 18:13:39.652
