   * xtb version 6.4.1 (afa7bdf) compiled by 'ehlert@majestix' on 2021-06-10
          program call               : /lustre/hpc/kemi/borup/pKalculator/dep/xtb-6.4.1/bin/xtb --gfn 2 /lustre/hpc/kemi/borup/pKalculator/calc/test#-1=11/conf06/test#-1=11_conf06_gfn2.xyz --opt --lmo --chrg -1 --uhf 0
          number of atoms            :                    18
          number of electrons        :                    56
          charge                     :                    -1
          spin                       :                   0.0

   ID    Z sym.   atoms
    1    6 C      1-5, 8-10
    2    7 N      6, 7
    3   16 S      11
    4    1 H      12-18

          :  Hamiltonian                  GFN2-xTB          :
 * total energy  :   -29.8882511 Eh     change       -0.2955389E-08 Eh
 * total energy  :   -29.8972091 Eh     change       -0.8957931E-02 Eh
 * total energy  :   -29.8993515 Eh     change       -0.2142446E-02 Eh
 * total energy  :   -29.8995588 Eh     change       -0.2072481E-03 Eh
 * total energy  :   -29.8996596 Eh     change       -0.1008562E-03 Eh
 * total energy  :   -29.8996893 Eh     change       -0.2968147E-04 Eh
 * total energy  :   -29.8997114 Eh     change       -0.2207462E-04 Eh
 * total energy  :   -29.8997313 Eh     change       -0.1989885E-04 Eh
 * total energy  :   -29.8997408 Eh     change       -0.9557506E-05 Eh
 * total energy  :   -29.8997574 Eh     change       -0.1662067E-04 Eh
 * total energy  :   -29.8997697 Eh     change       -0.1221679E-04 Eh
 * total energy  :   -29.8997932 Eh     change       -0.2355316E-04 Eh
 * total energy  :   -29.8997945 Eh     change       -0.1257097E-05 Eh
 * total energy  :   -29.8998290 Eh     change       -0.3456945E-04 Eh
 * total energy  :   -29.8998392 Eh     change       -0.1016351E-04 Eh
 * total energy  :   -29.8998488 Eh     change       -0.9593064E-05 Eh
 * total energy  :   -29.8998531 Eh     change       -0.4316361E-05 Eh
   *** GEOMETRY OPTIMIZATION CONVERGED AFTER 17 ITERATIONS ***

 final structure:
================
18
 xtb: 6.4.1 (afa7bdf)
C         3.31471796137636    0.97979686287645   -0.37903642198403
C         2.03737929523662    0.21169203075311   -0.41435083891409
C         0.82256410387723    0.55980560507510    0.06109168733543
C        -0.19980812821629   -0.42084794599527   -0.14855092911494
C        -1.55950956283246   -0.24496328001859    0.28041505576818
N        -1.94544605932796    0.88918412973688    0.89364282945202
N        -3.26277301267928    0.66417409672517    1.12887431322286
C        -3.79812190195691   -0.53097789041045    0.72612702055047
C        -2.65027590102071   -1.12934976341080    0.16027683340362
C         0.29615986605311   -1.51327558489787   -0.79734543034878
S         1.98827227611592   -1.36831167135586   -1.15837092104550
H         3.63691026321575    1.24434914308985   -1.38830973935142
H         3.17733741378833    1.89485452291438    0.19536047740458
H         4.10984885123598    0.38999498300295    0.08067974288927
H         0.61079684434945    1.48918573722034    0.56040194807516
H        -3.77278063333978    1.40418477770268    1.59342051191975
H        -2.59537318823261   -2.11059440767694   -0.29669134638283
H        -0.20990048764275   -2.40890134533108   -1.09763479287972

          :  Hamiltonian                  GFN2-xTB          :
         :: total energy             -29.899853109179 Eh    ::
         :: gradient norm              0.000983288577 Eh/a0 ::
         :: HOMO-LUMO gap              0.519220424507 eV    ::
         :: SCC energy               -30.314512951175 Eh    ::
         :: -> dispersion             -0.018633239849 Eh    ::
         :: repulsion energy           0.414687892960 Eh    ::

    * Orbital Energies and Occupations

         #    Occupation            Energy/Eh            Energy/eV
      -------------------------------------------------------------
         1        2.0000           -0.5936153             -16.1531
       ...           ...                  ...                  ...
        16        2.0000           -0.3329217              -9.0593
        17        2.0000           -0.3235431              -8.8041
        18        2.0000           -0.3137162              -8.5367
        19        2.0000           -0.3040013              -8.2723
        20        2.0000           -0.2932427              -7.9795
        21        2.0000           -0.2741924              -7.4612
        22        2.0000           -0.2610434              -7.1034
        23        2.0000           -0.2497713              -6.7966
        24        2.0000           -0.2432078              -6.6180
        25        2.0000           -0.1897806              -5.1642
        26        2.0000           -0.1849172              -5.0319
        27        2.0000           -0.1568272              -4.2675
        28        1.9999           -0.1211274              -3.2960 (HOMO)
        29        0.0001           -0.1020464              -2.7768 (LUMO)
        30                         -0.0745693              -2.0291
        31                         -0.0418881              -1.1398
        32                          0.0115271               0.3137
        33                          0.0337050               0.9172
        34                          0.0884383               2.4065
        35                          0.1215642               3.3079
        36                          0.1501251               4.0851
        37                          0.1640385               4.4637
        38                          0.2156096               5.8670
        39                          0.2330122               6.3406
       ...                                ...                  ...
        56                          0.8790447              23.9200
      -------------------------------------------------------------
                  HL-Gap            0.0190810 Eh            0.5192 eV

     #   Z          covCN         q      C6AA      α(0)
     1   6 C        3.774    -0.092    22.284     6.726
     2   6 C        2.972     0.020    27.562     8.612
     3   6 C        3.120    -0.054    29.154     8.843
     4   6 C        3.128    -0.005    27.954     8.657
     5   6 C        3.103     0.036    27.072     8.526
     6   7 N        1.949    -0.354    30.029     8.126
     7   7 N        3.068    -0.032    21.863     6.945
     8   6 C        1.959    -0.309    40.618    10.292
     9   6 C        3.073    -0.086    30.080     8.993
    10   6 C        2.943    -0.032    28.792     8.800
    11  16 S        2.295    -0.200   149.579    20.584
    12   1 H        0.924     0.029     2.599     2.521
    13   1 H        0.925     0.029     2.602     2.522
    14   1 H        0.924     0.030     2.589     2.516
    15   1 H        0.926     0.028     2.611     2.527
    16   1 H        0.860     0.073     2.072     2.255
    17   1 H        0.925    -0.090     5.231     3.577
    18   1 H        0.926     0.010     2.888     2.658

Wiberg/Mayer (AO) data.
largest (>0.10) Wiberg bond orders for each atom

     #   Z sym  total        # sym  WBO       # sym  WBO       # sym  WBO
 ---------------------------------------------------------------------------
     1   6 C    3.998 --     2 C    1.028    13 H    0.983    14 H    0.978
                            12 H    0.976
     2   6 C    3.940 --     3 C    1.662    11 S    1.110     1 C    1.028
                            10 C    0.106
     3   6 C    3.986 --     2 C    1.662     4 C    1.180    15 H    0.962
     4   6 C    3.977 --    10 C    1.550     3 C    1.180     5 C    1.098
     5   6 C    3.959 --     6 N    1.362     9 C    1.325     4 C    1.098
     6   7 N    2.912 --     5 C    1.362     7 N    1.159     8 C    0.186
                             9 C    0.122
     7   7 N    3.547 --     8 C    1.267     6 N    1.159    16 H    0.964
     8   6 C    2.926 --     9 C    1.437     7 N    1.267     6 N    0.186
     9   6 C    3.948 --     8 C    1.437     5 C    1.325    17 H    0.967
                             6 N    0.122
    10   6 C    3.907 --     4 C    1.550    11 S    1.113    18 H    0.971
                             2 C    0.106
    11  16 S    2.497 --    10 C    1.113     2 C    1.110
    12   1 H    0.999 --     1 C    0.976
    13   1 H    0.999 --     1 C    0.983
    14   1 H    0.999 --     1 C    0.978
    15   1 H    0.999 --     3 C    0.962
    16   1 H    0.994 --     7 N    0.964
    17   1 H    0.992 --     9 C    0.967
    18   1 H    1.000 --    10 C    0.971
 ---------------------------------------------------------------------------

molecular dipole:
                 x           y           z       tot (Debye)
 q only:        3.248       1.016      -0.348
   full:        3.600       1.201      -0.354       9.689

           -------------------------------------------------
          | TOTAL ENERGY              -29.899853109179 Eh   |
          | GRADIENT NORM               0.000983288577 Eh/α |
          | HOMO-LUMO GAP               0.519220424507 eV   |
           -------------------------------------------------

 * finished run on 2022/11/02 at 18:13:39.521
