   * xtb version 6.4.1 (afa7bdf) compiled by 'ehlert@majestix' on 2021-06-10
          program call               : /lustre/hpc/kemi/borup/pKalculator/dep/xtb-6.4.1/bin/xtb --gfn 2 /lustre/hpc/kemi/borup/pKalculator/calc/test#-1=4/conf03/test#-1=4_conf03_gfn2.xyz --opt --lmo --chrg -1 --uhf 0
          number of atoms            :                    18
          number of electrons        :                    56
          charge                     :                    -1
          spin                       :                   0.0

   ID    Z sym.   atoms
    1    6 C      1-5, 8-10
    2    7 N      6, 7
    3   16 S      11
    4    1 H      12-18

          :  Hamiltonian                  GFN2-xTB          :
 * total energy  :   -29.8717484 Eh     change       -0.1099139E-09 Eh
 * total energy  :   -29.8879454 Eh     change       -0.1619707E-01 Eh
 * total energy  :   -29.8917953 Eh     change       -0.3849816E-02 Eh
 * total energy  :   -29.8926405 Eh     change       -0.8452428E-03 Eh
 * total energy  :   -29.8936604 Eh     change       -0.1019849E-02 Eh
 * total energy  :   -29.8945889 Eh     change       -0.9285808E-03 Eh
 * total energy  :   -29.8960128 Eh     change       -0.1423854E-02 Eh
 * total energy  :   -29.8994799 Eh     change       -0.3467106E-02 Eh
 * total energy  :   -29.9011663 Eh     change       -0.1686447E-02 Eh
 * total energy  :   -29.9045976 Eh     change       -0.3431215E-02 Eh
 * total energy  :   -29.9231937 Eh     change       -0.3911328E-03 Eh
 * total energy  :   -29.9232586 Eh     change       -0.6485583E-04 Eh
 * total energy  :   -29.9233143 Eh     change       -0.5574689E-04 Eh
 * total energy  :   -29.9233539 Eh     change       -0.3960587E-04 Eh
 * total energy  :   -29.9233922 Eh     change       -0.3825616E-04 Eh
 * total energy  :   -29.9234177 Eh     change       -0.2550234E-04 Eh
 * total energy  :   -29.9234419 Eh     change       -0.2422085E-04 Eh
 * total energy  :   -29.9234616 Eh     change       -0.1962986E-04 Eh
 * total energy  :   -29.9234642 Eh     change       -0.2685714E-05 Eh
   *** GEOMETRY OPTIMIZATION CONVERGED AFTER 30 ITERATIONS ***

 final structure:
================
18
 xtb: 6.4.1 (afa7bdf)
C         3.57689675372414   -0.40034695755872   -1.27186025569611
C         2.35269170094638   -0.23429851329000   -0.50974763368261
C         1.33009470716536   -0.09400725556982    0.10919475029326
C         0.15725642762548    0.07964569020996    0.87504280055255
C        -1.09901468150046   -0.04524429427741    0.19096652652201
N        -1.17745639050188   -0.33840630499664   -1.11010151032361
N        -2.49122522951817   -0.37227283702175   -1.40494028311419
C        -3.26225982128385   -0.10704382538534   -0.32392262249013
C        -2.41403155029852    0.10900411750974    0.72389158684442
C         0.22932500380872    0.35857562917578    2.21981909165774
S         1.61524515120594    0.53232810610019    3.15463413067305
H         4.31944741996027   -0.94194076953778   -0.68140041370483
H         3.38109044254040   -0.96266148556224   -2.18876221132607
H         3.99578821442332    0.57249578632538   -1.54360163497454
H        -2.78571788593533   -0.57691467352405   -2.34473738624095
H        -4.33494343947356   -0.09376849064445   -0.38902792045653
H        -2.68588039101563    0.34623342451475    1.73274675921411
H        -0.70730543187275    0.48298165353225    2.76180722625253

          :  Hamiltonian                  GFN2-xTB          :
         :: total energy             -29.923464238563 Eh    ::
         :: gradient norm              0.000629121783 Eh/a0 ::
         :: HOMO-LUMO gap              1.783728174190 eV    ::
         :: SCC energy               -30.415889465104 Eh    ::
         :: -> dispersion             -0.017067439177 Eh    ::
         :: repulsion energy           0.492425587573 Eh    ::

    * Orbital Energies and Occupations

         #    Occupation            Energy/Eh            Energy/eV
      -------------------------------------------------------------
         1        2.0000           -0.5544281             -15.0868
       ...           ...                  ...                  ...
        16        2.0000           -0.3523709              -9.5885
        17        2.0000           -0.3465087              -9.4290
        18        2.0000           -0.3251904              -8.8489
        19        2.0000           -0.2990656              -8.1380
        20        2.0000           -0.2962823              -8.0623
        21        2.0000           -0.2689583              -7.3187
        22        2.0000           -0.2637396              -7.1767
        23        2.0000           -0.2541036              -6.9145
        24        2.0000           -0.2487459              -6.7687
        25        2.0000           -0.2337951              -6.3619
        26        2.0000           -0.2276989              -6.1960
        27        2.0000           -0.1591785              -4.3315
        28        2.0000           -0.1499424              -4.0801 (HOMO)
        29                         -0.0843916              -2.2964 (LUMO)
        30                         -0.0621389              -1.6909
        31                         -0.0064791              -0.1763
        32                          0.0136199               0.3706
        33                          0.0525021               1.4287
        34                          0.0915427               2.4910
        35                          0.1347940               3.6679
        36                          0.2005657               5.4577
        37                          0.2056101               5.5949
        38                          0.2062389               5.6120
        39                          0.2102609               5.7215
       ...                                ...                  ...
        56                          1.5872879              43.1923
      -------------------------------------------------------------
                  HL-Gap            0.0655508 Eh            1.7837 eV

     #   Z          covCN         q      C6AA      α(0)
     1   6 C        3.752    -0.064    21.791     6.657
     2   6 C        1.960    -0.087    33.461     9.342
     3   6 C        1.984    -0.031    31.888     9.119
     4   6 C        2.987    -0.040    28.975     8.830
     5   6 C        3.132     0.070    26.239     8.386
     6   7 N        1.985    -0.280    28.070     7.857
     7   7 N        2.969    -0.029    21.809     6.936
     8   6 C        2.981    -0.014    28.366     8.736
     9   6 C        3.018    -0.083    30.055     8.993
    10   6 C        2.900     0.063    26.581     8.453
    11  16 S        1.017    -0.644   168.682    21.966
    12   1 H        0.924     0.024     2.678     2.559
    13   1 H        0.924     0.016     2.795     2.615
    14   1 H        0.924     0.018     2.757     2.597
    15   1 H        0.860     0.125     1.580     1.969
    16   1 H        0.926    -0.010     3.240     2.815
    17   1 H        0.926    -0.002     3.088     2.748
    18   1 H        0.925    -0.032     3.673     2.997

Wiberg/Mayer (AO) data.
largest (>0.10) Wiberg bond orders for each atom

     #   Z sym  total        # sym  WBO       # sym  WBO       # sym  WBO
 ---------------------------------------------------------------------------
     1   6 C    3.998 --     2 C    1.054    13 H    0.973    12 H    0.972
                            14 H    0.972
     2   6 C    3.969 --     3 C    2.729     1 C    1.054
     3   6 C    3.977 --     2 C    2.729     4 C    1.124
     4   6 C    3.962 --    10 C    1.478     5 C    1.125     3 C    1.124
                            11 S    0.134
     5   6 C    3.970 --     6 N    1.422     9 C    1.248     4 C    1.125
     6   7 N    2.919 --     5 C    1.422     7 N    1.156     8 C    0.155
     7   7 N    3.555 --     8 C    1.242     6 N    1.156    15 H    0.955
                             9 C    0.100
     8   6 C    3.949 --     9 C    1.561     7 N    1.242    16 H    0.969
                             6 N    0.155
     9   6 C    3.973 --     8 C    1.561     5 C    1.248    17 H    0.972
                             7 N    0.100
    10   6 C    3.975 --     4 C    1.478    11 S    1.369    18 H    0.964
    11  16 S    1.680 --    10 C    1.369     4 C    0.134
    12   1 H    0.999 --     1 C    0.972
    13   1 H    0.999 --     1 C    0.973
    14   1 H    0.996 --     1 C    0.972
    15   1 H    0.984 --     7 N    0.955
    16   1 H    0.999 --     8 C    0.969
    17   1 H    1.000 --     9 C    0.972
    18   1 H    0.998 --    10 C    0.964
 ---------------------------------------------------------------------------

molecular dipole:
                 x           y           z       tot (Debye)
 q only:       -1.855      -0.555      -3.690
   full:       -2.595      -0.598      -3.992      12.198

           -------------------------------------------------
          | TOTAL ENERGY              -29.923464238563 Eh   |
          | GRADIENT NORM               0.000629121783 Eh/α |
          | HOMO-LUMO GAP               1.783728174190 eV   |
           -------------------------------------------------

 * finished run on 2022/11/02 at 18:13:36.571
