   * xtb version 6.4.1 (afa7bdf) compiled by 'ehlert@majestix' on 2021-06-10
          program call               : /lustre/hpc/kemi/borup/pKalculator/dep/xtb-6.4.1/bin/xtb --gfn 2 /lustre/hpc/kemi/borup/pKalculator/calc/test#-1=4/conf04/test#-1=4_conf04_gfn2.xyz --opt --lmo --chrg -1 --uhf 0
          number of atoms            :                    18
          number of electrons        :                    56
          charge                     :                    -1
          spin                       :                   0.0

   ID    Z sym.   atoms
    1    6 C      1-5, 8-10
    2    7 N      6, 7
    3   16 S      11
    4    1 H      12-18

          :  Hamiltonian                  GFN2-xTB          :
 * total energy  :   -29.8762094 Eh     change       -0.6386962E-09 Eh
 * total energy  :   -29.8924176 Eh     change       -0.1620819E-01 Eh
 * total energy  :   -29.8959392 Eh     change       -0.3521643E-02 Eh
 * total energy  :   -29.8966358 Eh     change       -0.6966122E-03 Eh
 * total energy  :   -29.8974072 Eh     change       -0.7713790E-03 Eh
 * total energy  :   -29.8979644 Eh     change       -0.5571629E-03 Eh
 * total energy  :   -29.8986160 Eh     change       -0.6516217E-03 Eh
 * total energy  :   -29.8996355 Eh     change       -0.1019568E-02 Eh
 * total energy  :   -29.9024616 Eh     change       -0.2826068E-02 Eh
 * total energy  :   -29.9027692 Eh     change       -0.3075564E-03 Eh
 * total energy  :   -29.9235577 Eh     change       -0.7243966E-03 Eh
 * total energy  :   -29.9242776 Eh     change       -0.7198781E-03 Eh
 * total energy  :   -29.9246640 Eh     change       -0.3864040E-03 Eh
 * total energy  :   -29.9249178 Eh     change       -0.2538335E-03 Eh
 * total energy  :   -29.9250687 Eh     change       -0.1509498E-03 Eh
 * total energy  :   -29.9251368 Eh     change       -0.6803344E-04 Eh
 * total energy  :   -29.9251575 Eh     change       -0.2070836E-04 Eh
 * total energy  :   -29.9251619 Eh     change       -0.4369545E-05 Eh
 * total energy  :   -29.9251641 Eh     change       -0.2272684E-05 Eh
   *** GEOMETRY OPTIMIZATION CONVERGED AFTER 32 ITERATIONS ***

 final structure:
================
18
 xtb: 6.4.1 (afa7bdf)
C        -3.53683399381474    0.42579213743932    0.73304042327209
C        -2.25459188973555    0.01043333528773    0.19205432013734
C        -1.19495404448403   -0.33801616354987   -0.26314530301877
C         0.04409221633157   -0.74724668952843   -0.79863651180552
C         1.22050445236596   -0.13932270203599   -0.24504888480138
N         2.46814839032794   -0.40516752572280   -0.63916464865754
N         3.26675203735039    0.36733666173842    0.12437075492014
C         2.56207370391210    1.12397065884269    0.99923281055767
C         1.24356051358322    0.83255663513681    0.79950157121552
C         0.12231648448365   -1.68323853842537   -1.80408794797143
S        -1.14863960910847   -2.48283155742344   -2.55347427658409
H        -3.44177529058716    1.38501781323560    1.25028423164337
H        -4.26770344853519    0.53546864757602   -0.07146204659805
H        -3.91493027469399   -0.31518111457190    1.44329772517518
H         4.26366899842279    0.33108920896080   -0.00497704442372
H         3.05366439959375    1.79480167983250    1.68008637739675
H         0.39130762892717    1.23636885952239    1.30823160867134
H         1.12333872566063   -1.93182934631441   -2.15010515912901

          :  Hamiltonian                  GFN2-xTB          :
         :: total energy             -29.925164127778 Eh    ::
         :: gradient norm              0.000641064416 Eh/a0 ::
         :: HOMO-LUMO gap              1.742939610884 eV    ::
         :: SCC energy               -30.417219645954 Eh    ::
         :: -> dispersion             -0.017127999606 Eh    ::
         :: repulsion energy           0.492047617144 Eh    ::

    * Orbital Energies and Occupations

         #    Occupation            Energy/Eh            Energy/eV
      -------------------------------------------------------------
         1        2.0000           -0.5533967             -15.0587
       ...           ...                  ...                  ...
        16        2.0000           -0.3492140              -9.5026
        17        2.0000           -0.3416839              -9.2977
        18        2.0000           -0.3251448              -8.8476
        19        2.0000           -0.2991922              -8.1414
        20        2.0000           -0.2980573              -8.1106
        21        2.0000           -0.2680852              -7.2950
        22        2.0000           -0.2612987              -7.1103
        23        2.0000           -0.2560870              -6.9685
        24        2.0000           -0.2488113              -6.7705
        25        2.0000           -0.2384878              -6.4896
        26        2.0000           -0.2277424              -6.1972
        27        2.0000           -0.1590159              -4.3270
        28        2.0000           -0.1487113              -4.0466 (HOMO)
        29                         -0.0846594              -2.3037 (LUMO)
        30                         -0.0595869              -1.6214
        31                         -0.0086085              -0.2342
        32                          0.0079020               0.2150
        33                          0.0545204               1.4836
        34                          0.0900528               2.4505
        35                          0.1339598               3.6452
        36                          0.2036802               5.5424
        37                          0.2060261               5.6063
        38                          0.2072620               5.6399
        39                          0.2113515               5.7512
       ...                                ...                  ...
        56                          1.5766396              42.9025
      -------------------------------------------------------------
                  HL-Gap            0.0640519 Eh            1.7429 eV

     #   Z          covCN         q      C6AA      α(0)
     1   6 C        3.752    -0.063    21.767     6.653
     2   6 C        1.960    -0.095    33.698     9.374
     3   6 C        1.984    -0.039    32.110     9.151
     4   6 C        2.987    -0.043    29.069     8.844
     5   6 C        3.138     0.070    26.221     8.381
     6   7 N        1.981    -0.284    28.177     7.872
     7   7 N        2.973    -0.029    21.807     6.936
     8   6 C        2.981    -0.014    28.366     8.736
     9   6 C        3.019    -0.084    30.089     8.998
    10   6 C        2.899     0.068    26.487     8.438
    11  16 S        1.018    -0.637   168.337    21.944
    12   1 H        0.924     0.012     2.857     2.643
    13   1 H        0.924     0.023     2.687     2.563
    14   1 H        0.924     0.017     2.774     2.605
    15   1 H        0.860     0.126     1.579     1.968
    16   1 H        0.926    -0.011     3.255     2.821
    17   1 H        0.926     0.000     3.053     2.732
    18   1 H        0.925    -0.014     3.319     2.849

Wiberg/Mayer (AO) data.
largest (>0.10) Wiberg bond orders for each atom

     #   Z sym  total        # sym  WBO       # sym  WBO       # sym  WBO
 ---------------------------------------------------------------------------
     1   6 C    3.997 --     2 C    1.053    12 H    0.973    13 H    0.972
                            14 H    0.972
     2   6 C    3.965 --     3 C    2.720     1 C    1.053
     3   6 C    3.977 --     2 C    2.720     4 C    1.130
     4   6 C    3.959 --    10 C    1.467     3 C    1.130     5 C    1.126
                            11 S    0.129
     5   6 C    3.971 --     6 N    1.422     9 C    1.248     4 C    1.126
     6   7 N    2.915 --     5 C    1.422     7 N    1.153     8 C    0.155
     7   7 N    3.551 --     8 C    1.242     6 N    1.153    15 H    0.955
                             9 C    0.101
     8   6 C    3.949 --     9 C    1.562     7 N    1.242    16 H    0.968
                             6 N    0.155
     9   6 C    3.974 --     8 C    1.562     5 C    1.248    17 H    0.974
                             7 N    0.101
    10   6 C    3.975 --     4 C    1.467    11 S    1.383    18 H    0.966
    11  16 S    1.688 --    10 C    1.383     4 C    0.129
    12   1 H    0.999 --     1 C    0.973
    13   1 H    0.999 --     1 C    0.972
    14   1 H    0.994 --     1 C    0.972
    15   1 H    0.983 --     7 N    0.955
    16   1 H    0.999 --     8 C    0.968
    17   1 H    1.000 --     9 C    0.974
    18   1 H    0.999 --    10 C    0.966
 ---------------------------------------------------------------------------

molecular dipole:
                 x           y           z       tot (Debye)
 q only:        1.222       2.962       3.052
   full:        1.583       3.561       3.663      13.594

           -------------------------------------------------
          | TOTAL ENERGY              -29.925164127778 Eh   |
          | GRADIENT NORM               0.000641064416 Eh/α |
          | HOMO-LUMO GAP               1.742939610884 eV   |
           -------------------------------------------------

 * finished run on 2022/11/02 at 18:13:36.612
