   * xtb version 6.4.1 (afa7bdf) compiled by 'ehlert@majestix' on 2021-06-10
          program call               : /lustre/hpc/kemi/borup/pKalculator/dep/xtb-6.4.1/bin/xtb --gfn 2 /lustre/hpc/kemi/borup/pKalculator/calc/furan#-1=3/conf01/furan#-1=3_conf01_gfn2.xyz --opt --lmo --chrg -1 --uhf 0 --alpb DMSO
          number of atoms            :                     8
          number of electrons        :                    26
          charge                     :                    -1

   ID    Z sym.   atoms
    1    6 C      1, 2, 4, 5
    2    8 O      3
    3    1 H      6-8

        Solvent                        DMSO
        Solvent mass                       7.8130E+01 g/mol
          :  Hamiltonian                  GFN2-xTB          :
 * total energy  :   -14.3041718 Eh     change       -0.4829968E-09 Eh
 * total energy  :   -14.3173562 Eh     change       -0.1318441E-01 Eh
 * total energy  :   -14.3202844 Eh     change       -0.2928247E-02 Eh
 * total energy  :   -14.3205325 Eh     change       -0.2481045E-03 Eh
 * total energy  :   -14.3206027 Eh     change       -0.7016059E-04 Eh
 * total energy  :   -14.3206067 Eh     change       -0.4028417E-05 Eh
 * total energy  :   -14.3206081 Eh     change       -0.1406162E-05 Eh
   *** GEOMETRY OPTIMIZATION CONVERGED AFTER 7 ITERATIONS ***

 final structure:
================
8
 xtb: 6.4.1 (afa7bdf)
C         0.56092273644475   -1.25190369613626    0.14425874664169
C         1.28239017708307   -0.10218984405424    0.25322918200045
O         0.53886882383157    1.10855861744953    0.23457998125629
C        -0.73822330184854    0.67024612954709    0.10228897285311
C        -0.78333933787372   -0.68524201667163    0.04594902529766
H         2.35400098351995    0.06989507475324    0.35564769755477
H        -1.50404692004545    1.43727042369102    0.06435555916491
H        -1.71057316111163   -1.24663468857877   -0.05841516476886

          :  Hamiltonian                  GFN2-xTB          :
         :: total energy             -14.320608144337 Eh    ::
         :: gradient norm              0.000641811644 Eh/a0 ::
         :: HOMO-LUMO gap              2.895224587962 eV    ::
         :: SCC energy               -14.492482212950 Eh    ::
         :: -> dispersion             -0.005444269343 Eh    ::
         :: -> Gsolv                  -0.083938919469 Eh    ::
         :: repulsion energy           0.171873489493 Eh    ::

    * Orbital Energies and Occupations

         #    Occupation            Energy/Eh            Energy/eV
      -------------------------------------------------------------
         1        2.0000           -0.6451905             -17.5565
         2        2.0000           -0.5632933             -15.3280
         3        2.0000           -0.5459329             -14.8556
         4        2.0000           -0.4897130             -13.3258
         5        2.0000           -0.4809164             -13.0864
         6        2.0000           -0.4637923             -12.6204
         7        2.0000           -0.4617470             -12.5648
         8        2.0000           -0.4189099             -11.3991
         9        2.0000           -0.3941281             -10.7248
        10        2.0000           -0.3444056              -9.3718
        11        2.0000           -0.3173815              -8.6364
        12        2.0000           -0.2791103              -7.5950
        13        2.0000           -0.2310544              -6.2873 (HOMO)
        14                         -0.1246569              -3.3921 (LUMO)
        15                         -0.0423320              -1.1519
        16                          0.1351094               3.6765
        17                          0.1876260               5.1056
        18                          0.2033349               5.5330
        19                          0.2262340               6.1561
        20                          0.3176298               8.6431
        21                          0.4719051              12.8412
        22                          0.5662524              15.4085
        23                          0.7173786              19.5209
      -------------------------------------------------------------
                  HL-Gap            0.1063975 Eh            2.8952 eV

     #   Z          covCN         q      C6AA      α(0)
     1   6 C        2.004    -0.376    43.127    10.606
     2   6 C        3.136     0.039    26.906     8.490
     3   8 O        1.713    -0.352    19.924     6.027
     4   6 C        2.985     0.053    26.812     8.494
     5   6 C        3.093    -0.069    29.610     8.919
     6   1 H        0.925    -0.115     6.134     3.873
     7   1 H        0.925    -0.084     5.031     3.508
     8   1 H        0.925    -0.094     5.372     3.625

Wiberg/Mayer (AO) data.
largest (>0.10) Wiberg bond orders for each atom

     #   Z sym  total        # sym  WBO       # sym  WBO       # sym  WBO
 ---------------------------------------------------------------------------
     1   6 C    3.002 --     2 C    1.686     5 C    1.185
     2   6 C    3.795 --     1 C    1.686     6 H    0.957     3 O    0.955
                             4 C    0.152
     3   8 O    2.267 --     4 C    1.099     2 C    0.955     5 C    0.115
     4   6 C    3.882 --     5 C    1.636     3 O    1.099     7 H    0.956
                             2 C    0.152
     5   6 C    3.942 --     4 C    1.636     1 C    1.185     8 H    0.965
                             3 O    0.115
     6   1 H    0.987 --     2 C    0.957
     7   1 H    0.993 --     4 C    0.956
     8   1 H    0.991 --     5 C    0.965
 ---------------------------------------------------------------------------

molecular dipole:
                 x           y           z       tot (Debye)
 q only:       -0.603       0.281      -0.313
   full:       -0.897       1.138      -0.306       3.766

           -------------------------------------------------
          | TOTAL ENERGY              -14.320608144337 Eh   |
          | GRADIENT NORM               0.000641811644 Eh/α |
          | HOMO-LUMO GAP               2.895224587962 eV   |
           -------------------------------------------------

 * finished run on 2022/11/04 at 10:55:59.328
